----- GAMESS execution script 'rungms' -----
This job is running on host chemcompute-node-0.novalocal
under operating system Linux at Wed Dec 22 13:13:33 UTC 2021
SLURM has assigned the following compute nodes to this run:
chemcompute-node-0
Available scratch disk space (Kbyte units) at beginning of the job is
Filesystem     1K-blocks     Used Available Use% Mounted on
/dev/sda1       62903276 17049804  45853472  28% /
GAMESS temporary binary files will be written to /scratch/331045
GAMESS supplementary output files will be written to /data/slurm/369034
Copying input file 369034.inp to your run's scratch directory...
The generated host list is
chemcompute-node-0.novalocal

 Distributed Data Interface kickoff program.
 Initiating 1 compute processes on 1 nodes to run the following command:
 /data/gamess-2019R1-ddi/gamess.00.x 369034 

          ******************************************************
          *         GAMESS VERSION = 30 JUN 2019 (R1)          *
          *             FROM IOWA STATE UNIVERSITY             *
          * M.W.SCHMIDT, K.K.BALDRIDGE, J.A.BOATZ, S.T.ELBERT, *
          *   M.S.GORDON, J.H.JENSEN, S.KOSEKI, N.MATSUNAGA,   *
          *          K.A.NGUYEN, S.J.SU, T.L.WINDUS,           *
          *       TOGETHER WITH M.DUPUIS, J.A.MONTGOMERY       *
          *         J.COMPUT.CHEM.  14, 1347-1363(1993)        *
          **************** 64 BIT LINUX VERSION ****************

  SINCE 1993, STUDENTS AND POSTDOCS WORKING AT IOWA STATE UNIVERSITY
  AND ALSO IN THEIR VARIOUS JOBS AFTER LEAVING ISU HAVE MADE IMPORTANT
  CONTRIBUTIONS TO THE CODE:
     IVANA ADAMOVIC, CHRISTINE AIKENS, YURI ALEXEEV, POOJA ARORA,
     ANDREY ASADCHEV, ROB BELL, PRADIPTA BANDYOPADHYAY, JONATHAN BENTZ,
     COLLEEN BERTONI, BRETT BODE, KURT BRORSEN, CALEB CARLIN, GALINA CHABAN,
     WEI CHEN, CHEOL HO CHOI, PAUL DAY, ALBERT DEFUSCO, NUWAN DESILVA,
     TIM DUDLEY, DMITRI FEDOROV, ALEX FINDLATER, GRAHAM FLETCHER, 
     MARK FREITAG, KURT GLAESEMANN, ANASTASIA GUNINA,
     DAN KEMP, GRANT MERRILL, NORIYUKI MINEZAWA, JONATHAN MULLIN,
     TAKESHI NAGATA, SEAN NEDD, HEATHER NETZLOFF, BOSILJKA NJEGIC, RYAN OLSON,
     MIKE PAK, BUU PHAM,
     SPENCER PRUITT, LUKE ROSKOP, JIM SHOEMAKER, LYUDMILA SLIPCHENKO,
     TONY SMITH, SAROM SOK LEANG, JIE SONG, TETSUYA TAKETSUGU, SIMON WEBB,
     PENG XU, SOOHAENG YOO, FEDERICO ZAHARIEV

  ADDITIONAL CODE HAS BEEN PROVIDED BY COLLABORATORS IN OTHER GROUPS:
     IOWA STATE UNIVERSITY:
          JOE IVANIC, AARON WEST, LAIMUTIS BYTAUTAS, KLAUS RUEDENBERG
     UNIVERSITY OF TOKYO: KIMIHIKO HIRAO, TAKAHITO NAKAJIMA,
          TAKAO TSUNEDA, MUNEAKI KAMIYA, SUSUMU YANAGISAWA,
          KIYOSHI YAGI, MAHITO CHIBA, SEIKEN TOKURA, NAOAKI KAWAKAMI
     UNIVERSITY OF AARHUS: FRANK JENSEN
     UNIVERSITY OF IOWA: VISVALDAS KAIRYS, HUI LI
     NATIONAL INST. OF STANDARDS AND TECHNOLOGY: WALT STEVENS, DAVID GARMER
     UNIVERSITY OF PISA: BENEDETTA MENNUCCI, JACOPO TOMASI
     UNIVERSITY OF MEMPHIS: HENRY KURTZ, PRAKASHAN KORAMBATH
     UNIVERSITY OF ALBERTA: TOBY ZENG, MARIUSZ KLOBUKOWSKI
     UNIVERSITY OF NEW ENGLAND: MARK SPACKMAN
     MIE UNIVERSITY: HIROAKI UMEDA
     NAT. INST. OF ADVANCED INDUSTRIAL SCIENCE AND TECHNOLOGY: KAZUO KITAURA
     MICHIGAN STATE UNIVERSITY:
          KAROL KOWALSKI, MARTA WLOCH, JEFFREY GOUR, JESSE LUTZ,
          WEI LI, JUN SHEN, J. EMILIANO DEUSTUA, PIOTR PIECUCH
     UNIVERSITY OF MINNESOTA:
          YINAN SHU
     UNIVERSITY OF SILESIA: MONIKA MUSIAL, STANISLAW KUCHARSKI
     FACULTES UNIVERSITAIRES NOTRE-DAME DE LA PAIX:
          OLIVIER QUINET, BENOIT CHAMPAGNE
     UNIVERSITY OF CALIFORNIA - SANTA BARBARA: BERNARD KIRTMAN
     INSTITUTE FOR MOLECULAR SCIENCE:
          KAZUYA ISHIMURA, MICHIO KATOUDA, AND SHIGERU NAGASE
     UNIVERSITY OF NOTRE DAME: ANNA POMOGAEVA, DAN CHIPMAN
     KYUSHU UNIVERSITY:
          HARUYUKI NAKANO,
          FENG LONG GU, JACEK KORCHOWIEC, MARCIN MAKOWSKI, AND YURIKO AOKI,
          HIROTOSHI MORI AND EISAKU MIYOSHI
     PENNSYLVANIA STATE UNIVERSITY:
          TZVETELIN IORDANOV, CHET SWALINA, JONATHAN SKONE,
          SHARON HAMMES-SCHIFFER
     WASEDA UNIVERSITY:
          MASATO KOBAYASHI, TOMOKO AKAMA, TSUGUKI TOUMA,
          TAKESHI YOSHIKAWA, YASUHIRO IKABATA, JUNJI SEINO,
          YUYA NAKAJIMA, HIROMI NAKAI
     NANJING UNIVERSITY: SHUHUA LI
     UNIVERSITY OF NEBRASKA:
          PEIFENG SU, DEJUN SI, NANDUN THELLAMUREGE, YALI WANG, HUI LI
     UNIVERSITY OF ZURICH: ROBERTO PEVERATI, KIM BALDRIDGE
     N. COPERNICUS UNIVERSITY AND JACKSON STATE UNIVERSITY:
          MARIA BARYSZ
     UNIVERSITY OF COPENHAGEN: Jimmy Kromann, CASPER STEINMANN
     TOKYO INSTITUTE OF TECHNOLOGY: HIROYA NAKATA
     NAGOYA UNIVERSITY: YOSHIO NISHIMOTO, STEPHAN IRLE
     MOSCOW STATE UNIVERSITY: VLADIMIR MIRONOV
     A.N.NESMEYANOV INSTITUTE OF ORGANOELEMENT COMPOUNDS OF RUSSIAN ACADEMY OF SCIENCES:
          IGOR S. GERASIMOV

 EXECUTION OF GAMESS BEGUN Wed Dec 22 13:13:33 2021

            ECHO OF THE FIRST FEW INPUT CARDS -
 INPUT CARD>!   File created by the GAMESS Input Deck Generator Plugin for Avogadro         
 INPUT CARD> $BASIS GBASIS=STO NGAUSS=3 $END                                                
 INPUT CARD> $CONTRL SCFTYP=UHF RUNTYP=OPTIMIZE ICHARG=1 MULT=2 $END                        
 INPUT CARD> $STATPT hssend=.t. OPTTOL=0.0001 NSTEP=20 $END                                 
 INPUT CARD> $STATPT HESS=calc ihrep=5 $END                                                 
 INPUT CARD> $FORCE nvib=2 $END                                                             
 INPUT CARD> $ZMAT DLC=.t. auto=.t. nonvdw(1)=2,4,2,13 $END                                 
 INPUT CARD> $ZMAT IFZMAT(1)=1,2,4,1,2,13 fvalue(1)=2.00,2.00 $END                          
 INPUT CARD>                                                                                
 INPUT CARD> $DATA                                                                          
 INPUT CARD>Title                                                                           
 INPUT CARD>C1                                                                              
 INPUT CARD>C     6.0     0.02408     0.91872     1.47084                                   
 INPUT CARD>N     7.0     1.21842     0.77334     0.60809                                   
 INPUT CARD>C     6.0     2.31830    -0.13129     1.02021                                   
 INPUT CARD>C     6.0     1.43226     1.69134    -0.31151                                   
 INPUT CARD>Cl    17.0     2.91534     1.76270    -1.26695                                  
 INPUT CARD>H     1.0     0.00442     0.15077     2.27244                                   
 INPUT CARD>H     1.0    -0.91211     0.82512     0.87735                                   
 INPUT CARD>H     1.0     0.02856     1.91888     1.95576                                   
 INPUT CARD>H     1.0     2.01802    -0.77180     1.87586                                   
 INPUT CARD>H     1.0     3.19993     0.46569     1.33848                                   
 INPUT CARD>H     1.0     2.62695    -0.79713     0.18441                                   
 INPUT CARD>H     1.0     0.67680     2.44472    -0.52020                                   
 INPUT CARD>H     1.0     0.53601    -0.32753    -0.31967                                   
 INPUT CARD> $END                                                                           
    1000000 WORDS OF MEMORY AVAILABLE

     BASIS OPTIONS
     -------------
     GBASIS=STO          IGAUSS=       3      POLAR=NONE    
     NDFUNC=       0     NFFUNC=       0     DIFFSP=       F
     NPFUNC=       0      DIFFS=       F     BASNAM=        


     RUN TITLE
     ---------
 Title                                                                           

 THE POINT GROUP OF THE MOLECULE IS C1      
 THE ORDER OF THE PRINCIPAL AXIS IS     0

 ATOM      ATOMIC                      COORDINATES (BOHR)
           CHARGE         X                   Y                   Z
 C           6.0     0.0455046018        1.7361290594        2.7794845718
 N           7.0     2.3024799380        1.4614006953        1.1491234759
 C           6.0     4.3809517573       -0.2481021249        1.9279173499
 C           6.0     2.7065789432        3.1961691521       -0.5886685424
 CL         17.0     5.5091937610        3.3310199986       -2.3941883401
 H           1.0     0.0083525889        0.2849139872        4.2942889235
 H           1.0    -1.7236379707        1.5592507070        1.6579510953
 H           1.0     0.0539705742        3.6261574033        3.6958504977
 H           1.0     3.8135048377       -1.4584905173        3.5448613913
 H           1.0     6.0469908799        0.8800264952        2.5293604400
 H           1.0     4.9642156834       -1.5063572766        0.3484843694
 H           1.0     1.2789665485        4.6198509167       -0.9830354588
 H           1.0     1.0129120267       -0.6189419528       -0.6040887065

          INTERNUCLEAR DISTANCES (ANGS.)
          ------------------------------

                1 C          2 N          3 C          4 C          5 CL    

   1 C       0.0000000    1.4805137 *  2.5630126 *  2.3993091 *  4.0702802  
   2 N       1.4805137 *  0.0000000    1.4825432 *  1.3168583 *  2.7155378 *
   3 C       2.5630126 *  1.4825432 *  0.0000000    2.4249794 *  3.0289859  
   4 C       2.3993091 *  1.3168583 *  2.4249794 *  0.0000000    1.7656399 *
   5 CL      4.0702802    2.7155378 *  3.0289859    1.7656399 *  0.0000000  
   6 H       1.1102686 *  2.1520805 *  2.6460685 *  3.3299971    4.8578859  
   7 H       1.1124042 *  2.1481015 *  3.3720436    2.7676336 *  4.4862515  
   8 H       1.1115249 *  2.1317230 *  3.2126874    2.6763149 *  4.3294054  
   9 H       2.6453158 *  2.1526864 *  1.1102063 *  3.3458573    4.1359555  
  10 H       3.2107287    2.1341274 *  1.1112841 *  2.7109670 *  2.9242934 *
  11 H       3.3725325    2.1517057 *  1.1122812 *  2.8045862 *  2.9567456 *
  12 H       2.5920956 *  2.0880378 *  3.4209959    1.0871305 *  2.4563893 *
  13 H       2.2407895 *  1.5932159 *  2.2383803 *  2.2088836 *  3.3056939  

                6 H          7 H          8 H          9 H         10 H     

   1 C       1.1102686 *  1.1124042 *  1.1115249 *  2.6453158 *  3.2107287  
   2 N       2.1520805 *  2.1481015 *  2.1317230 *  2.1526864 *  2.1341274 *
   3 C       2.6460685 *  3.3720436    3.2126874    1.1102063 *  1.1112841 *
   4 C       3.3299971    2.7676336 *  2.6763149 *  3.3458573    2.7109670 *
   5 CL      4.8578859    4.4862515    4.3294054    4.1359555    2.9242934 *
   6 H       0.0000000    1.8002920 *  1.7964081 *  2.2501102 *  3.3440604  
   7 H       1.8002920 *  0.0000000    1.8011494 *  3.4832223    4.1533967  
   8 H       1.7964081 *  1.8011494 *  0.0000000    3.3472517    3.5426520  
   9 H       2.2501102 *  3.4832223    3.3472517    0.0000000    1.7936192 *
  10 H       3.3440604    4.1533967    3.5426520    1.7936192 *  0.0000000  
  11 H       3.4836830    3.9543402    4.1552403    1.7978989 *  1.8041336 *
  12 H       3.6760223    2.6647486 *  2.6128721 *  4.2291814    3.7064047  
  13 H       2.6889390 *  2.2042029 *  3.2375060    2.6859042 *  3.2365304  

               11 H         12 H         13 H     

   1 C       3.3725325    2.5920956 *  2.2407895 *
   2 N       2.1517057 *  2.0880378 *  1.5932159 *
   3 C       1.1122812 *  3.4209959    2.2383803 *
   4 C       2.8045862 *  1.0871305 *  2.2088836 *
   5 CL      2.9567456 *  2.4563893 *  3.3056939  
   6 H       3.4836830    3.6760223    2.6889390 *
   7 H       3.9543402    2.6647486 *  2.2042029 *
   8 H       4.1552403    2.6128721 *  3.2375060  
   9 H       1.7978989 *  4.2291814    2.6859042 *
  10 H       1.8041336 *  3.7064047    3.2365304  
  11 H       0.0000000    3.8482661    2.2015110 *
  12 H       3.8482661    0.0000000    2.7830566 *
  13 H       2.2015110 *  2.7830566 *  0.0000000  

  * ... LESS THAN  3.000


     ATOMIC BASIS SET
     ----------------
 THE CONTRACTED PRIMITIVE FUNCTIONS HAVE BEEN UNNORMALIZED
 THE CONTRACTED BASIS FUNCTIONS ARE NOW NORMALIZED TO UNITY

  SHELL TYPE  PRIMITIVE        EXPONENT          CONTRACTION COEFFICIENT(S)

 C         

      1   S       1            71.6168373    0.154328967295
      1   S       2            13.0450963    0.535328142282
      1   S       3             3.5305122    0.444634542185

      2   L       4             2.9412494   -0.099967229187    0.155916274999
      2   L       5             0.6834831    0.399512826089    0.607683718598
      2   L       6             0.2222899    0.700115468880    0.391957393099

 N         

      3   S       7            99.1061690    0.154328967295
      3   S       8            18.0523124    0.535328142282
      3   S       9             4.8856602    0.444634542185

      4   L      10             3.7804559   -0.099967229187    0.155916274999
      4   L      11             0.8784966    0.399512826089    0.607683718598
      4   L      12             0.2857144    0.700115468880    0.391957393099

 C         

      5   S      13            71.6168373    0.154328967295
      5   S      14            13.0450963    0.535328142282
      5   S      15             3.5305122    0.444634542185

      6   L      16             2.9412494   -0.099967229187    0.155916274999
      6   L      17             0.6834831    0.399512826089    0.607683718598
      6   L      18             0.2222899    0.700115468880    0.391957393099

 C         

      7   S      19            71.6168373    0.154328967295
      7   S      20            13.0450963    0.535328142282
      7   S      21             3.5305122    0.444634542185

      8   L      22             2.9412494   -0.099967229187    0.155916274999
      8   L      23             0.6834831    0.399512826089    0.607683718598
      8   L      24             0.2222899    0.700115468880    0.391957393099

 CL        

      9   S      25           601.3456136    0.154328967295
      9   S      26           109.5358542    0.535328142282
      9   S      27            29.6446769    0.444634542185

     10   L      28            38.9604189   -0.099967229187    0.155916274999
     10   L      29             9.0535635    0.399512826089    0.607683718598
     10   L      30             2.9444998    0.700115468880    0.391957393099

     11   L      31             2.2112785   -0.219620369005    0.010587604289
     11   L      32             0.6169411    0.225595433605    0.595167005266
     11   L      33             0.2414666    0.900398426019    0.462001011973

 H         

     12   S      34             3.4252509    0.154328967295
     12   S      35             0.6239137    0.535328142282
     12   S      36             0.1688554    0.444634542185

 H         

     13   S      37             3.4252509    0.154328967295
     13   S      38             0.6239137    0.535328142282
     13   S      39             0.1688554    0.444634542185

 H         

     14   S      40             3.4252509    0.154328967295
     14   S      41             0.6239137    0.535328142282
     14   S      42             0.1688554    0.444634542185

 H         

     15   S      43             3.4252509    0.154328967295
     15   S      44             0.6239137    0.535328142282
     15   S      45             0.1688554    0.444634542185

 H         

     16   S      46             3.4252509    0.154328967295
     16   S      47             0.6239137    0.535328142282
     16   S      48             0.1688554    0.444634542185

 H         

     17   S      49             3.4252509    0.154328967295
     17   S      50             0.6239137    0.535328142282
     17   S      51             0.1688554    0.444634542185

 H         

     18   S      52             3.4252509    0.154328967295
     18   S      53             0.6239137    0.535328142282
     18   S      54             0.1688554    0.444634542185

 H         

     19   S      55             3.4252509    0.154328967295
     19   S      56             0.6239137    0.535328142282
     19   S      57             0.1688554    0.444634542185

 TOTAL NUMBER OF BASIS SET SHELLS             =   19
 NUMBER OF CARTESIAN GAUSSIAN BASIS FUNCTIONS =   37
 NUMBER OF ELECTRONS                          =   49
 CHARGE OF MOLECULE                           =    1
 SPIN MULTIPLICITY                            =    2
 NUMBER OF OCCUPIED ORBITALS (ALPHA)          =   25
 NUMBER OF OCCUPIED ORBITALS (BETA )          =   24
 TOTAL NUMBER OF ATOMS                        =   13
 THE NUCLEAR REPULSION ENERGY IS      234.8115123634

     $CONTRL OPTIONS
     ---------------
 SCFTYP=UHF          RUNTYP=OPTIMIZE     EXETYP=RUN     
 MPLEVL=       0     CITYP =NONE         CCTYP =NONE         VBTYP =NONE    
 DFTTYP=NONE         TDDFT =NONE    
 MULT  =       2     ICHARG=       1     NZVAR =       0     COORD =UNIQUE  
 PP    =NONE         RELWFN=NONE         LOCAL =NONE         NUMGRD=       F
 ISPHER=      -1     NOSYM =       0     MAXIT =      30     UNITS =ANGS    
 PLTORB=       F     MOLPLT=       F     AIMPAC=       F     FRIEND=        
 NPRINT=       7     IREST =       0     GEOM  =INPUT   
 NORMF =       0     NORMP =       0     ITOL  =      20     ICUT  =       9
 INTTYP=BEST         GRDTYP=BEST         QMTTOL= 1.0E-06

     $SYSTEM OPTIONS
     ---------------
  REPLICATED MEMORY=     1000000 WORDS (ON EVERY NODE).
 DISTRIBUTED MEMDDI=           0 MILLION WORDS IN AGGREGATE,
 MEMDDI DISTRIBUTED OVER   1 PROCESSORS IS           0 WORDS/PROCESSOR.
 TOTAL MEMORY REQUESTED ON EACH PROCESSOR=     1000000 WORDS.
 TIMLIM=      525600.00 MINUTES, OR     365.0 DAYS.
 PARALL= F  BALTYP=  DLB     KDIAG=    0  COREFL= F
 MXSEQ2=     300 MXSEQ3=     150  mem10=         0

          ----------------
          PROPERTIES INPUT
          ----------------

     MOMENTS            FIELD           POTENTIAL          DENSITY
 IEMOM =       1   IEFLD =       0   IEPOT =       0   IEDEN =       0
 WHERE =COMASS     WHERE =NUCLEI     WHERE =NUCLEI     WHERE =NUCLEI  
 OUTPUT=BOTH       OUTPUT=BOTH       OUTPUT=BOTH       OUTPUT=BOTH    
 IEMINT=       0   IEFINT=       0                     IEDINT=       0
                                                       MORB  =       0
          EXTRAPOLATION IN EFFECT
          SOSCF IN EFFECT
          DIIS or SOSCF will be reset if energy rises
 ORBITAL PRINTING OPTION: NPREO=     1    37     2     1

     -------------------------------
     INTEGRAL TRANSFORMATION OPTIONS
     -------------------------------
     NWORD  =            0
     CUTOFF = 1.0E-09     MPTRAN =       0
     DIRTRF =       F     AOINTS =DUP     

          ----------------------
          INTEGRAL INPUT OPTIONS
          ----------------------
 NOPK  =       1 NORDER=       0 SCHWRZ=       T

     ------------------------------------------
     THE POINT GROUP IS C1 , NAXIS= 0, ORDER= 1
     ------------------------------------------

     DIMENSIONS OF THE SYMMETRY SUBSPACES ARE
 A   =   37

 ..... DONE SETTING UP THE RUN .....
 STEP CPU TIME =     0.02 TOTAL CPU TIME =          0.0 (      0.0 MIN)
 TOTAL WALL CLOCK TIME=          0.0 SECONDS, CPU UTILIZATION IS    50.00%


          -----------------------------
          STATIONARY POINT LOCATION RUN
          -----------------------------

 OBTAINING INITIAL HESSIAN, HESS=CALC    

     ---------------------------------
     HESSIAN MATRIX CONTROL PARAMETERS
     ---------------------------------
     METHOD=ANALYTIC   NVIB  =       2   VIBSIZ= 0.01000
     RDHESS=       F   PURIFY=       F   PRTIFC=       F
     VIBANL=       F   DECOMP=       F   PROJCT=       F
     SCLFAC= 1.00000   PRTSCN=       F   NPRT  =       0
     PULCOR=       F   NPUN  =       0   REDOVB=       T
     HSSTYP=GENERAL 
 Old integral subroutine is used

     ------------------------------
     CPHF RESPONSE SOLUTION OPTIONS
     ------------------------------
     POLAR  =       F     NWORD  =       0
     CPHF   =AO      

          ********************
          1 ELECTRON INTEGRALS
          ********************
 ...... END OF ONE-ELECTRON INTEGRALS ......
 STEP CPU TIME =     0.02 TOTAL CPU TIME =          0.0 (      0.0 MIN)
 TOTAL WALL CLOCK TIME=          0.1 SECONDS, CPU UTILIZATION IS    66.67%

          -------------
          GUESS OPTIONS
          -------------
          GUESS =HUCKEL            NORB  =       0          NORDER=       0
          MIX   =       F          PRTMO =       F          PUNMO =       F
          TOLZ  = 1.0E-08          TOLE  = 1.0E-05
          SYMDEN=       F          PURIFY=       F

 INITIAL GUESS ORBITALS GENERATED BY HUCKEL   ROUTINE.
 HUCKEL GUESS REQUIRES     24250 WORDS.

 SYMMETRIES FOR INITIAL GUESS ORBITALS FOLLOW.  ALPHA SET(S).
    25 ORBITALS ARE OCCUPIED (    9 CORE ORBITALS).
    10=A       11=A       12=A       13=A       14=A       15=A       16=A   
    17=A       18=A       19=A       20=A       21=A       22=A       23=A   
    24=A       25=A       26=A       27=A       28=A       29=A       30=A   
    31=A       32=A       33=A       34=A       35=A   

 SYMMETRIES FOR INITIAL GUESS ORBITALS FOLLOW.   BETA SET(S).
    24 ORBITALS ARE OCCUPIED (    9 CORE ORBITALS).
    10=A       11=A       12=A       13=A       14=A       15=A       16=A   
    17=A       18=A       19=A       20=A       21=A       22=A       23=A   
    24=A       25=A       26=A       27=A       28=A       29=A       30=A   
    31=A       32=A       33=A       34=A   
 ...... END OF INITIAL ORBITAL SELECTION ......
 STEP CPU TIME =     0.02 TOTAL CPU TIME =          0.1 (      0.0 MIN)
 TOTAL WALL CLOCK TIME=          0.1 SECONDS, CPU UTILIZATION IS    75.00%

                    ----------------------
                    AO INTEGRAL TECHNOLOGY
                    ----------------------
     S,P,L SHELL ROTATED AXIS INTEGRALS, REPROGRAMMED BY
        KAZUYA ISHIMURA (IMS) AND JOSE SIERRA (SYNSTAR).
     S,P,D,L SHELL ROTATED AXIS INTEGRALS PROGRAMMED BY
        KAZUYA ISHIMURA (INSTITUTE FOR MOLECULAR SCIENCE).
     S,P,D,F,G SHELL TO TOTAL QUARTET ANGULAR MOMENTUM SUM 5,
        ERIC PROGRAM BY GRAHAM FLETCHER (ELORET AND NASA ADVANCED
        SUPERCOMPUTING DIVISION, AMES RESEARCH CENTER).
     S,P,D,F,G,L SHELL GENERAL RYS QUADRATURE PROGRAMMED BY
        MICHEL DUPUIS (PACIFIC NORTHWEST NATIONAL LABORATORY).

          --------------------
          2 ELECTRON INTEGRALS
          --------------------

 THE -PK- OPTION IS OFF, THE INTEGRALS ARE NOT IN SUPERMATRIX FORM.
 STORING   15000 INTEGRALS/RECORD ON DISK, USING 12 BYTES/INTEGRAL.
 TWO ELECTRON INTEGRAL EVALUATION REQUIRES   89546 WORDS OF MEMORY.
 SCHWARZ INEQUALITY OVERHEAD:       686 INTEGRALS, T=        0.00
 II,JST,KST,LST =  1  1  1  1 NREC =         1 INTLOC =    1
 II,JST,KST,LST =  2  1  1  1 NREC =         1 INTLOC =    2
 II,JST,KST,LST =  3  1  1  1 NREC =         1 INTLOC =   34
 II,JST,KST,LST =  4  1  1  1 NREC =         1 INTLOC =  134
 II,JST,KST,LST =  5  1  1  1 NREC =         1 INTLOC = 1340
 II,JST,KST,LST =  6  1  1  1 NREC =         1 INTLOC = 1898
 II,JST,KST,LST =  7  1  1  1 NREC =         1 INTLOC = 6740
 II,JST,KST,LST =  8  1  1  1 NREC =         1 INTLOC = 8467
 II,JST,KST,LST =  9  1  1  1 NREC =         2 INTLOC = 5875
 II,JST,KST,LST = 10  1  1  1 NREC =         2 INTLOC = 9002
 II,JST,KST,LST = 11  1  1  1 NREC =         3 INTLOC =12662
 II,JST,KST,LST = 12  1  1  1 NREC =         6 INTLOC = 4473
 II,JST,KST,LST = 13  1  1  1 NREC =         7 INTLOC =  482
 II,JST,KST,LST = 14  1  1  1 NREC =         7 INTLOC =13202
 II,JST,KST,LST = 15  1  1  1 NREC =         8 INTLOC =12333
 II,JST,KST,LST = 16  1  1  1 NREC =         9 INTLOC =13294
 II,JST,KST,LST = 17  1  1  1 NREC =        11 INTLOC = 1431
 II,JST,KST,LST = 18  1  1  1 NREC =        12 INTLOC = 6344
 II,JST,KST,LST = 19  1  1  1 NREC =        13 INTLOC =13220
 SCHWARZ INEQUALITY TEST SKIPPED        2635 INTEGRAL BLOCKS.
 TOTAL NUMBER OF NONZERO TWO-ELECTRON INTEGRALS =              217031
         15 INTEGRAL RECORDS WERE STORED ON DISK FILE  8.
  ...... END OF TWO-ELECTRON INTEGRALS .....
 STEP CPU TIME =     0.07 TOTAL CPU TIME =          0.1 (      0.0 MIN)
 TOTAL WALL CLOCK TIME=          0.2 SECONDS, CPU UTILIZATION IS    86.67%

          ---------------------------
                  UHF SCF CALCULATION
          ---------------------------

     NUCLEAR ENERGY =       234.8115123634
     MAXIT = 30     NPUNCH=  2     MULT=  2
     EXTRAP=T  DAMP=F  SHIFT=F  RSTRCT=F  DIIS=F  SOSCF=T
     DENSITY MATRIX CONV=  1.00E-05
     SOSCF WILL OPTIMIZE     300 ALPHA AND     312 BETA ROTATION ANGLES.
     SOGTOL= 2.500E-01
     MEMORY REQUIRED FOR UHF/ROHF ITERS=     48566 WORDS.

 ITER EX      TOTAL ENERGY        E CHANGE  DENSITY CHANGE    ORB. GRAD 
   1  0     -624.2887718491  -624.2887718491   0.721097418   0.000000000
          ---------------START SECOND ORDER SCF---------------
   2  1     -624.7605336533    -0.4717618043   0.233438893   0.109941810
   3  2     -624.8225712922    -0.0620376388   0.097789512   0.055185507
   4  3     -624.8425344773    -0.0199631852   0.104610630   0.028293260
   5  4     -624.8504293834    -0.0078949061   0.034563239   0.014443113
   6  5     -624.8521965049    -0.0017671215   0.046469640   0.008310227
   7  6     -624.8533972581    -0.0012007531   0.009128477   0.005367044
   8  7     -624.8535202685    -0.0001230105   0.006298027   0.002064297
   9  8     -624.8535563123    -0.0000360438   0.001269189   0.000460011
  10  9     -624.8535583825    -0.0000020702   0.001604137   0.000222267
  11 10     -624.8535594636    -0.0000010811   0.000406129   0.000093090
  12 11     -624.8535595948    -0.0000001312   0.000202186   0.000045230
  13 12     -624.8535596213    -0.0000000265   0.000042632   0.000011193
  14 13     -624.8535596235    -0.0000000022   0.000027126   0.000005648
  15 14     -624.8535596240    -0.0000000005   0.000010484   0.000001990
  16 15     -624.8535596241    -0.0000000001   0.000003831   0.000000686

          -----------------
          DENSITY CONVERGED
          -----------------
     TIME TO FORM FOCK OPERATORS=       0.1 SECONDS (       0.0 SEC/ITER)
     TIME TO SOLVE SCF EQUATIONS=       0.0 SECONDS (       0.0 SEC/ITER)

 FINAL UHF ENERGY IS     -624.8535596241 AFTER  16 ITERATIONS

          --------------------
          SPIN SZ   =    0.500
          S-SQUARED =    1.091
          --------------------

  ----- ALPHA SET ----- 

          ------------
          EIGENVECTORS
          ------------

                      1          2          3          4          5
                 -103.8853   -15.8010   -11.4001   -11.3466   -11.3427
                     A          A          A          A          A   
    1  C  1  S   -0.000001   0.000441  -0.001270   0.992048   0.011759
    2  C  1  S    0.000001  -0.004608  -0.000178   0.036290   0.000341
    3  C  1  X   -0.000001  -0.003091  -0.000135   0.000305  -0.000182
    4  C  1  Y    0.000005   0.000271  -0.000357   0.000045   0.000061
    5  C  1  Z   -0.000004   0.002162   0.000384  -0.000220  -0.000014
    6  N  2  S    0.000002   0.993592   0.000271   0.000490   0.000504
    7  N  2  S   -0.000020   0.030795  -0.006686  -0.005049  -0.005175
    8  N  2  X   -0.000032   0.000346  -0.000674   0.003078  -0.002796
    9  N  2  Y    0.000008   0.001445  -0.002762  -0.000374   0.002321
   10  N  2  Z    0.000010  -0.001078   0.002615  -0.002308  -0.001181
   11  C  3  S   -0.000001   0.000440  -0.001125  -0.011667   0.992050
   12  C  3  S   -0.000004  -0.004565  -0.000169  -0.000514   0.036279
   13  C  3  X   -0.000006   0.002716  -0.000048   0.000154  -0.000235
   14  C  3  Y    0.000020  -0.002394  -0.000380  -0.000098   0.000262
   15  C  3  Z   -0.000020   0.001021   0.000354  -0.000077  -0.000076
   16  C  4  S   -0.000054   0.000443   0.992181   0.001406   0.001281
   17  C  4  S    0.000371  -0.006538   0.034609  -0.000119  -0.000119
   18  C  4  X    0.000303   0.000766  -0.000905   0.000237  -0.000174
   19  C  4  Y    0.000007   0.003379  -0.001263   0.000084   0.000239
   20  C  4  Z   -0.000189  -0.003514   0.001510  -0.000285  -0.000167
   21  CL 5  S    0.994496   0.000004   0.000121   0.000003   0.000013
   22  CL 5  S    0.015771  -0.000008  -0.000412  -0.000009  -0.000029
   23  CL 5  X   -0.000103   0.000006  -0.000371  -0.000006  -0.000005
   24  CL 5  Y   -0.000009   0.000025  -0.000040  -0.000002  -0.000020
   25  CL 5  Z    0.000069  -0.000026   0.000257   0.000004   0.000022
   26  CL 5  S   -0.001858   0.000191  -0.004270  -0.000076  -0.000081
   27  CL 5  X    0.000196  -0.000077   0.003413   0.000059   0.000032
   28  CL 5  Y    0.000012  -0.000175   0.000319   0.000013   0.000124
   29  CL 5  Z   -0.000129   0.000205  -0.002324  -0.000038  -0.000137
   30  H  6  S    0.000002   0.000242  -0.000140  -0.006593  -0.000123
   31  H  7  S    0.000001   0.000260  -0.000009  -0.006583  -0.000097
   32  H  8  S    0.000000   0.000212  -0.000132  -0.006626  -0.000081
   33  H  9  S    0.000009   0.000232  -0.000131   0.000032  -0.006605
   34  H 10  S    0.000023   0.000202  -0.000151   0.000075  -0.006623
   35  H 11  S    0.000022   0.000251  -0.000029   0.000057  -0.006575
   36  H 12  S    0.000005   0.000286  -0.006897  -0.000196  -0.000117
   37  H 13  S   -0.000001  -0.002135  -0.000894  -0.000452  -0.000469

                      6          7          8          9         10
                  -10.5729    -8.0137    -8.0107    -8.0096    -1.5268
                     A          A          A          A          A   
    1  C  1  S    0.000028  -0.000021  -0.000002  -0.000007  -0.060035
    2  C  1  S   -0.000051   0.000066   0.000004   0.000061   0.146568
    3  C  1  X   -0.000002   0.000006   0.000004   0.000031   0.051534
    4  C  1  Y   -0.000083   0.000105   0.000012   0.000015  -0.005552
    5  C  1  Z    0.000078  -0.000105  -0.000015  -0.000041  -0.039593
    6  N  2  S   -0.000041   0.000042  -0.000001   0.000072  -0.195563
    7  N  2  S    0.000431  -0.000510  -0.000008  -0.001205   0.632418
    8  N  2  X    0.000488  -0.000584   0.000164  -0.000054   0.018204
    9  N  2  Y   -0.000108   0.000104   0.000188  -0.000500   0.063166
   10  N  2  Z   -0.000162   0.000215   0.000246   0.000416  -0.044448
   11  C  3  S    0.000093  -0.000067   0.000003  -0.000078  -0.059246
   12  C  3  S    0.000062   0.000183   0.000017  -0.000087   0.144893
   13  C  3  X    0.000071  -0.000028   0.000043   0.000065  -0.047055
   14  C  3  Y   -0.000418   0.000314   0.000028   0.000562   0.039569
   15  C  3  Z    0.000452  -0.000365   0.000098  -0.000638  -0.020098
   16  C  4  S    0.001740  -0.001376  -0.000013  -0.000011  -0.119208
   17  C  4  S   -0.007699   0.010764   0.000093   0.000073   0.296965
   18  C  4  X   -0.005809   0.007750  -0.001195   0.000837  -0.012407
   19  C  4  Y   -0.000135   0.000176  -0.001862  -0.002933  -0.087414
   20  C  4  Z    0.003622  -0.004794  -0.002120   0.002081   0.080304
   21  CL 5  S   -0.376833  -0.005022  -0.000057  -0.000199   0.009766
   22  CL 5  S    1.052794   0.014292   0.000162   0.000567  -0.033095
   23  CL 5  X   -0.009226   0.816017   0.412107  -0.375410   0.010846
   24  CL 5  Y   -0.001165   0.058144   0.599603   0.784997   0.002322
   25  CL 5  Z    0.006513  -0.553455   0.670663  -0.471140  -0.008559
   26  CL 5  S    0.045596  -0.005737  -0.000045   0.000062   0.091151
   27  CL 5  X   -0.004735   0.039848   0.016881  -0.015478  -0.027707
   28  CL 5  Y   -0.000353   0.002750   0.024479   0.032079  -0.005440
   29  CL 5  Z    0.003157  -0.026848   0.027341  -0.019173   0.021499
   30  H  6  S   -0.000026   0.000033   0.000004  -0.000005   0.016935
   31  H  7  S   -0.000007   0.000014  -0.000028  -0.000010   0.018443
   32  H  8  S   -0.000001   0.000007   0.000039  -0.000012   0.018534
   33  H  9  S   -0.000179   0.000113  -0.000015   0.000252   0.016672
   34  H 10  S   -0.000495   0.000180  -0.000426   0.000582   0.018428
   35  H 11  S   -0.000466   0.000140   0.000287   0.000614   0.018264
   36  H 12  S   -0.000115  -0.000069   0.000001   0.000431   0.034464
   37  H 13  S    0.000003  -0.000024   0.000041   0.000011   0.036585

                     11         12         13         14         15
                   -1.2796    -1.1938    -1.1559    -0.9892    -0.9032
                     A          A          A          A          A   
    1  C  1  S    0.076566   0.106804  -0.148297  -0.050424  -0.059052
    2  C  1  S   -0.214171  -0.311126   0.444034   0.162266   0.198009
    3  C  1  X   -0.040162  -0.006213   0.008061  -0.111520  -0.206642
    4  C  1  Y    0.013770  -0.024879  -0.023862   0.058234   0.113612
    5  C  1  Z    0.022269   0.037231   0.014779   0.065493   0.163919
    6  N  2  S    0.053048  -0.003081   0.028651   0.090841   0.022389
    7  N  2  S   -0.196717   0.016253  -0.097577  -0.381154  -0.113013
    8  N  2  X    0.062048   0.256681  -0.120227  -0.010379   0.288370
    9  N  2  Y    0.087575  -0.200345  -0.154328   0.106957   0.189985
   10  N  2  Z   -0.138065   0.036275   0.242960  -0.052376  -0.245484
   11  C  3  S    0.046200  -0.178253  -0.038753  -0.096414  -0.000987
   12  C  3  S   -0.129053   0.520368   0.116797   0.311942   0.001982
   13  C  3  X    0.038509  -0.026713  -0.013026   0.151556   0.139512
   14  C  3  Y   -0.011255   0.028168  -0.016682  -0.105627   0.094863
   15  C  3  Z   -0.006700  -0.023878   0.028153   0.063378  -0.093743
   16  C  4  S   -0.122394   0.050396   0.078499  -0.110359   0.017730
   17  C  4  S    0.366376  -0.151295  -0.233103   0.389210  -0.077100
   18  C  4  X    0.085842   0.086994   0.098528  -0.130386   0.210673
   19  C  4  Y    0.009223  -0.013908   0.093664   0.196171  -0.253664
   20  C  4  Z   -0.063880  -0.035713  -0.128296  -0.057640   0.197893
   21  CL 5  S    0.062868   0.009171   0.050141  -0.025506  -0.002184
   22  CL 5  S   -0.209513  -0.030252  -0.165047   0.082330   0.007133
   23  CL 5  X    0.036251  -0.000949   0.005703   0.023954  -0.011382
   24  CL 5  Y    0.003855   0.003884  -0.000517  -0.009109   0.023159
   25  CL 5  Z   -0.024977  -0.003271  -0.003383  -0.008992  -0.021380
   26  CL 5  S    0.657470   0.101143   0.559495  -0.310911  -0.025498
   27  CL 5  X   -0.100096   0.002826  -0.018626  -0.069276   0.036929
   28  CL 5  Y   -0.012519  -0.012315   0.000105   0.028735  -0.076065
   29  CL 5  Z    0.070553   0.010427   0.012256   0.024706   0.070413
   30  H  6  S   -0.045301  -0.055055   0.125643   0.061711   0.093404
   31  H  7  S   -0.038181  -0.080049   0.104021   0.082345   0.114469
   32  H  8  S   -0.037210  -0.076613   0.101901   0.097776   0.175557
   33  H  9  S   -0.032142   0.114014   0.048436   0.136937  -0.098425
   34  H 10  S   -0.016646   0.117003   0.025417   0.138092   0.086288
   35  H 11  S   -0.017073   0.120898   0.024022   0.124540   0.033471
   36  H 12  S    0.064508  -0.057849  -0.049027   0.239348  -0.223400
   37  H 13  S   -0.025460   0.007703   0.002600  -0.087269  -0.128233

                     16         17         18         19         20
                   -0.8852    -0.8530    -0.7684    -0.7653    -0.7352
                     A          A          A          A          A   
    1  C  1  S   -0.013864  -0.017576   0.003227  -0.001501   0.006329
    2  C  1  S    0.045433   0.059822  -0.013636   0.007592  -0.024403
    3  C  1  X   -0.225716  -0.063809  -0.022238  -0.232038  -0.228821
    4  C  1  Y   -0.128126  -0.153881  -0.385468  -0.134858   0.321556
    5  C  1  Z   -0.096777   0.246892   0.075454  -0.334517  -0.182641
    6  N  2  S    0.021703   0.003912   0.009117  -0.004306  -0.000173
    7  N  2  S   -0.096377  -0.007853  -0.054390   0.027619   0.001166
    8  N  2  X   -0.088363   0.349816  -0.079280   0.036350   0.158471
    9  N  2  Y   -0.187215  -0.299441   0.155164  -0.085420  -0.073156
   10  N  2  Z   -0.320339   0.072697  -0.130820   0.093178  -0.031449
   11  C  3  S   -0.003453   0.034945   0.004445  -0.003166  -0.005847
   12  C  3  S    0.010127  -0.118137  -0.021039   0.013527   0.022359
   13  C  3  X   -0.017481  -0.243029   0.009143   0.179115  -0.321068
   14  C  3  Y   -0.187409   0.163132  -0.056595   0.385113  -0.073514
   15  C  3  Z   -0.178665  -0.079173   0.415702   0.041522   0.302515
   16  C  4  S    0.000332  -0.056711  -0.022196   0.007334  -0.002801
   17  C  4  S   -0.004843   0.232202   0.081781  -0.022898   0.015405
   18  C  4  X   -0.103616   0.124970   0.062783   0.015570   0.085473
   19  C  4  Y   -0.232382   0.122314  -0.193495   0.125042  -0.035880
   20  C  4  Z   -0.215040  -0.175246   0.058863  -0.032128  -0.025843
   21  CL 5  S   -0.002186  -0.022994  -0.001399  -0.002396  -0.002112
   22  CL 5  S    0.007020   0.072452   0.004210   0.007575   0.006187
   23  CL 5  X    0.011722   0.059120   0.007790   0.000821   0.023453
   24  CL 5  Y    0.020408  -0.007877   0.011811  -0.012764  -0.009248
   25  CL 5  Z    0.012655  -0.028499  -0.010241  -0.012456  -0.002757
   26  CL 5  S   -0.027265  -0.305533  -0.021183  -0.031744  -0.034113
   27  CL 5  X   -0.037922  -0.182658  -0.025090  -0.000659  -0.077288
   28  CL 5  Y   -0.067389   0.026647  -0.038761   0.043409   0.033246
   29  CL 5  Z   -0.041854   0.085910   0.033103   0.042675   0.006005
   30  H  6  S    0.032214   0.216026   0.267270  -0.123366  -0.285530
   31  H  7  S    0.185323  -0.017824   0.001181   0.308589   0.212890
   32  H  8  S   -0.085897   0.005908  -0.253330  -0.206939   0.164831
   33  H  9  S   -0.009842  -0.098588   0.289262  -0.195030   0.295004
   34  H 10  S   -0.102626  -0.134441   0.069782   0.284709  -0.164903
   35  H 11  S    0.164161  -0.119892  -0.219021  -0.163202  -0.220555
   36  H 12  S   -0.025423   0.110195  -0.121819   0.059447  -0.040265
   37  H 13  S    0.359907   0.010598  -0.031952   0.009110  -0.000071

                     21         22         23         24         25
                   -0.7188    -0.7066    -0.6392    -0.5946    -0.5348
                     A          A          A          A          A   
    1  C  1  S   -0.003121   0.012244   0.011301  -0.001187   0.010083
    2  C  1  S    0.013031  -0.050578  -0.048369   0.004216  -0.044778
    3  C  1  X   -0.105042  -0.191300   0.033922  -0.009605  -0.025113
    4  C  1  Y   -0.193002  -0.083043   0.081997  -0.011804  -0.012194
    5  C  1  Z   -0.188461   0.124251   0.126276   0.016403   0.025211
    6  N  2  S   -0.002766  -0.007522   0.020557  -0.015145   0.019577
    7  N  2  S    0.010014   0.026061  -0.092009   0.077068  -0.090915
    8  N  2  X    0.028057   0.263418  -0.050974   0.008188   0.072278
    9  N  2  Y    0.128012  -0.008124  -0.060468   0.077875   0.121295
   10  N  2  Z    0.122996  -0.120781  -0.113693  -0.075068   0.088958
   11  C  3  S    0.000308  -0.006907   0.011796  -0.004625   0.009723
   12  C  3  S   -0.000694   0.027611  -0.050165   0.014783  -0.043647
   13  C  3  X   -0.118429  -0.151831   0.068308   0.064532   0.028046
   14  C  3  Y   -0.268522   0.044956   0.043393  -0.018047  -0.013423
   15  C  3  Z   -0.191456  -0.006907   0.106596  -0.021191   0.031560
   16  C  4  S   -0.011438   0.027589   0.004309   0.008976   0.000734
   17  C  4  S    0.050037  -0.145960  -0.018728  -0.042055  -0.003355
   18  C  4  X    0.278969  -0.410702   0.119810   0.062717   0.239940
   19  C  4  Y    0.258590   0.115268   0.180000  -0.039914   0.347644
   20  C  4  Z    0.339267   0.250246   0.189050  -0.003491   0.399031
   21  CL 5  S   -0.003654   0.024318   0.000037   0.000555  -0.000081
   22  CL 5  S    0.011251  -0.074968  -0.000098  -0.002031   0.000274
   23  CL 5  X   -0.018764  -0.134345  -0.073434   0.109416   0.081496
   24  CL 5  Y   -0.047453  -0.033085  -0.109671  -0.224503   0.119798
   25  CL 5  Z   -0.077710   0.089421  -0.120340   0.131357   0.140334
   26  CL 5  S   -0.052366   0.347491   0.000716   0.003662  -0.000890
   27  CL 5  X    0.069387   0.438975   0.260677  -0.391763  -0.297554
   28  CL 5  Y    0.165192   0.113149   0.389690   0.807083  -0.437051
   29  CL 5  Z    0.266683  -0.292262   0.427753  -0.473198  -0.511922
   30  H  6  S    0.005697   0.121144   0.016327   0.021129   0.013882
   31  H  7  S    0.171940   0.075617  -0.102758  -0.002860   0.012383
   32  H  8  S   -0.213412  -0.029831   0.121643  -0.007099  -0.004663
   33  H  9  S    0.035465   0.022924   0.020396  -0.025911   0.010687
   34  H 10  S   -0.240103  -0.079325   0.110065   0.021325   0.005320
   35  H 11  S    0.220259  -0.051881  -0.095269   0.029838   0.006898
   36  H 12  S   -0.046710   0.207715  -0.003855  -0.131558  -0.005137
   37  H 13  S   -0.196309  -0.051124   0.662087  -0.018916   0.529078

                     26         27         28         29         30
                   -0.0290     0.1076     0.2613     0.3047     0.3915
                     A          A          A          A          A   
    1  C  1  S    0.000552  -0.038068   0.074119  -0.055665   0.031356
    2  C  1  S   -0.004612   0.197800  -0.399692   0.304339  -0.178625
    3  C  1  X    0.066832   0.193807  -0.432308   0.461963  -0.376777
    4  C  1  Y    0.021519  -0.068787  -0.036139  -0.092605   0.631965
    5  C  1  Z    0.016264  -0.110651   0.498518  -0.282861  -0.226798
    6  N  2  S    0.035786   0.033250  -0.167225  -0.021133  -0.076131
    7  N  2  S   -0.191066  -0.196826   1.063364   0.138469   0.536054
    8  N  2  X    0.380054   0.090166   0.049685   0.615123  -0.150381
    9  N  2  Y    0.589265  -0.189621  -0.174581  -0.104577   0.258400
   10  N  2  Z    0.559112   0.071163   0.329335  -0.280032  -0.108213
   11  C  3  S    0.001348   0.019840   0.088444   0.063338   0.010032
   12  C  3  S   -0.008520  -0.104778  -0.477330  -0.351317  -0.063255
   13  C  3  X   -0.019614   0.113559   0.479754   0.515042   0.240314
   14  C  3  Y    0.053412  -0.094014  -0.459602  -0.136228   0.280515
   15  C  3  Z    0.029445   0.036903   0.340294  -0.106098  -0.316260
   16  C  4  S   -0.004517  -0.141542   0.026424   0.114368   0.035648
   17  C  4  S    0.022228   0.769398  -0.157873  -0.714543  -0.230092
   18  C  4  X   -0.199999   0.577504   0.062201   0.232325   0.202862
   19  C  4  Y   -0.314769  -0.053100   0.102177  -0.162744   0.359618
   20  C  4  Z   -0.336036  -0.292804  -0.181226   0.007910  -0.435698
   21  CL 5  S   -0.000497  -0.022026  -0.000255   0.003423  -0.004781
   22  CL 5  S    0.001503   0.062419   0.000127  -0.009943   0.012924
   23  CL 5  X   -0.020107  -0.198699  -0.009430   0.028204  -0.038499
   24  CL 5  Y   -0.024740  -0.013582   0.008081  -0.003718   0.009571
   25  CL 5  Z   -0.021828   0.131520  -0.004715  -0.013985   0.014466
   26  CL 5  S   -0.007624  -0.390541  -0.011463   0.058927  -0.092544
   27  CL 5  X    0.077653   0.790166   0.039627  -0.114990   0.161451
   28  CL 5  Y    0.095920   0.054232  -0.031675   0.014393  -0.040065
   29  CL 5  Z    0.084922  -0.523437   0.017083   0.057589  -0.060811
   30  H  6  S   -0.003238  -0.132437  -0.170069  -0.049093   0.701525
   31  H  7  S    0.167977   0.007534   0.179757   0.047766  -0.289924
   32  H  8  S   -0.163480   0.029434   0.061930   0.019331  -0.372734
   33  H  9  S   -0.000944   0.012231  -0.121083   0.395755   0.489007
   34  H 10  S   -0.161701   0.018728   0.053542  -0.141819  -0.230339
   35  H 11  S    0.165758   0.004466   0.168474  -0.143895  -0.112938
   36  H 12  S   -0.012891  -0.138720   0.075677   0.740999  -0.060913
   37  H 13  S    0.440558  -0.012896  -0.037369   0.008152   0.020676

                     31         32         33         34         35
                    0.4333     0.4573     0.4607     0.4684     0.5043
                     A          A          A          A          A   
    1  C  1  S    0.006303  -0.010557   0.030440  -0.173768   0.129068
    2  C  1  S   -0.036383   0.064941  -0.194398   1.091475  -0.825517
    3  C  1  X   -0.425776  -0.156216   0.491431  -0.222019   0.226884
    4  C  1  Y   -0.539957   0.339156   0.321265   0.209415   0.112499
    5  C  1  Z   -0.440166  -0.316530   0.364597   0.218222  -0.315581
    6  N  2  S   -0.001145   0.002370   0.010066   0.012149   0.000726
    7  N  2  S    0.007779  -0.027957  -0.075177  -0.060996  -0.005317
    8  N  2  X   -0.014151   0.034361  -0.152405   0.067828  -0.048827
    9  N  2  Y    0.032532   0.006928  -0.186619   0.019215   0.019154
   10  N  2  Z    0.026710  -0.031585  -0.229862  -0.158831   0.014640
   11  C  3  S   -0.004782   0.068244   0.018517  -0.122673  -0.153261
   12  C  3  S    0.027482  -0.429064  -0.120775   0.772962   0.979628
   13  C  3  X    0.242981  -0.557044   0.131546   0.207342   0.214266
   14  C  3  Y    0.509883  -0.159635   0.631411  -0.104856  -0.323406
   15  C  3  Z    0.389271   0.501586   0.481152   0.322736   0.258395
   16  C  4  S    0.002406   0.047627  -0.004764   0.014333   0.006683
   17  C  4  S   -0.016030  -0.323783   0.030360  -0.100952  -0.047216
   18  C  4  X    0.008951   0.356490   0.034560   0.047721   0.112248
   19  C  4  Y   -0.017657  -0.304251   0.052934   0.022154  -0.075193
   20  C  4  Z   -0.009227   0.050271   0.087061   0.002195  -0.001384
   21  CL 5  S   -0.000027  -0.001921  -0.000190   0.001002  -0.000038
   22  CL 5  S    0.000054   0.004921   0.000618  -0.003132  -0.000462
   23  CL 5  X   -0.001511  -0.005899   0.000969   0.001070  -0.006845
   24  CL 5  Y   -0.002554  -0.009303  -0.000697   0.004060   0.002180
   25  CL 5  Z   -0.001965   0.011783   0.002057  -0.004321   0.001170
   26  CL 5  S   -0.000712  -0.040611  -0.002498   0.014561  -0.007443
   27  CL 5  X    0.006060   0.026816  -0.004181  -0.004671   0.029264
   28  CL 5  Y    0.009990   0.039372   0.002311  -0.016360  -0.007952
   29  CL 5  Z    0.007623  -0.051075  -0.008771   0.017169  -0.006547
   30  H  6  S   -0.051436   0.431988   0.037179  -0.437251   0.677858
   31  H  7  S   -0.615194  -0.301405   0.684202  -0.524777   0.356590
   32  H  8  S    0.692426  -0.202956  -0.345561  -0.733911   0.363534
   33  H  9  S    0.053527  -0.452038   0.064550  -0.523040  -0.750101
   34  H 10  S   -0.592482   0.553121  -0.506376  -0.517503  -0.462407
   35  H 11  S    0.515752   0.604567   0.720572  -0.220779  -0.449676
   36  H 12  S    0.022782   0.584976  -0.017819   0.094212   0.109812
   37  H 13  S    0.006107  -0.018941  -0.076881   0.052803   0.006116

                     36         37
                    0.5219     0.5827
                     A          A   
    1  C  1  S    0.042220  -0.015051
    2  C  1  S   -0.248815   0.083279
    3  C  1  X   -0.162236   0.261582
    4  C  1  Y   -0.257447  -0.319207
    5  C  1  Z    0.473425   0.018533
    6  N  2  S   -0.008875  -0.064835
    7  N  2  S    0.063727   0.518904
    8  N  2  X   -0.645109   0.231860
    9  N  2  Y    0.440507   0.643321
   10  N  2  Z   -0.005741  -0.730628
   11  C  3  S   -0.070049  -0.012567
   12  C  3  S    0.422590   0.073150
   13  C  3  X   -0.222432  -0.339022
   14  C  3  Y    0.262495  -0.099677
   15  C  3  Z   -0.278164   0.215936
   16  C  4  S    0.072878   0.073656
   17  C  4  S   -0.513041  -0.524044
   18  C  4  X    0.632074   0.030746
   19  C  4  Y   -0.325943   0.765635
   20  C  4  Z   -0.087584  -0.674069
   21  CL 5  S   -0.004955  -0.001304
   22  CL 5  S    0.012900   0.003064
   23  CL 5  X   -0.027104  -0.018602
   24  CL 5  Y   -0.009488   0.022885
   25  CL 5  Z    0.025510  -0.008052
   26  CL 5  S   -0.102118  -0.030395
   27  CL 5  X    0.118108   0.079886
   28  CL 5  Y    0.039998  -0.096043
   29  CL 5  Z   -0.109584   0.032759
   30  H  6  S   -0.348211  -0.213525
   31  H  7  S    0.194176   0.137654
   32  H  8  S    0.137955   0.203176
   33  H  9  S    0.099330  -0.282714
   34  H 10  S   -0.102002   0.190908
   35  H 11  S   -0.193366   0.133369
   36  H 12  S    0.808409  -0.269017
   37  H 13  S    0.000410  -0.016402

  ----- BETA SET ----- 

          ------------
          EIGENVECTORS
          ------------

                      1          2          3          4          5
                 -103.8856   -15.8209   -11.3755   -11.3443   -11.3404
                     A          A          A          A          A   
    1  C  1  S   -0.000001   0.000470  -0.001984   0.992098   0.011715
    2  C  1  S    0.000001  -0.004942  -0.000179   0.036076   0.000340
    3  C  1  X   -0.000001  -0.003312  -0.000117   0.000294  -0.000179
    4  C  1  Y    0.000005   0.000306  -0.000334   0.000047   0.000058
    5  C  1  Z   -0.000004   0.002334   0.000354  -0.000207  -0.000014
    6  N  2  S    0.000002   0.993125   0.000241   0.000508   0.000524
    7  N  2  S   -0.000020   0.032966  -0.006013  -0.005077  -0.005204
    8  N  2  X   -0.000032   0.000343  -0.000585   0.003091  -0.002796
    9  N  2  Y    0.000008   0.001493  -0.002403  -0.000367   0.002334
   10  N  2  Z    0.000010  -0.001175   0.002297  -0.002298  -0.001168
   11  C  3  S   -0.000001   0.000469  -0.001697  -0.011626   0.992100
   12  C  3  S   -0.000004  -0.004897  -0.000166  -0.000507   0.036066
   13  C  3  X   -0.000006   0.002927  -0.000053   0.000150  -0.000223
   14  C  3  Y    0.000020  -0.002559  -0.000348  -0.000097   0.000255
   15  C  3  Z   -0.000021   0.001107   0.000329  -0.000076  -0.000067
   16  C  4  S   -0.000054   0.000470   0.992966   0.002105   0.001853
   17  C  4  S    0.000370  -0.007003   0.031186  -0.000090  -0.000094
   18  C  4  X    0.000303   0.000833  -0.000802   0.000231  -0.000164
   19  C  4  Y    0.000007   0.003647  -0.001183   0.000087   0.000236
   20  C  4  Z   -0.000189  -0.003770   0.001363  -0.000270  -0.000157
   21  CL 5  S    0.994494   0.000005   0.000107   0.000003   0.000013
   22  CL 5  S    0.015774  -0.000008  -0.000367  -0.000009  -0.000029
   23  CL 5  X   -0.000103   0.000006  -0.000330  -0.000006  -0.000005
   24  CL 5  Y   -0.000009   0.000028  -0.000037  -0.000001  -0.000020
   25  CL 5  Z    0.000069  -0.000028   0.000229   0.000004   0.000022
   26  CL 5  S   -0.001860   0.000202  -0.003803  -0.000077  -0.000084
   27  CL 5  X    0.000196  -0.000080   0.003051   0.000060   0.000034
   28  CL 5  Y    0.000012  -0.000191   0.000291   0.000012   0.000123
   29  CL 5  Z   -0.000129   0.000220  -0.002079  -0.000040  -0.000139
   30  H  6  S    0.000002   0.000259  -0.000126  -0.006556  -0.000123
   31  H  7  S    0.000001   0.000277  -0.000007  -0.006546  -0.000097
   32  H  8  S    0.000000   0.000218  -0.000122  -0.006588  -0.000080
   33  H  9  S    0.000009   0.000249  -0.000118   0.000031  -0.006568
   34  H 10  S    0.000023   0.000207  -0.000139   0.000074  -0.006585
   35  H 11  S    0.000022   0.000268  -0.000025   0.000056  -0.006538
   36  H 12  S    0.000005   0.000305  -0.006137  -0.000202  -0.000118
   37  H 13  S   -0.000001  -0.002221  -0.000741  -0.000410  -0.000425

                      6          7          8          9         10
                  -10.5732    -8.0179    -8.0097    -8.0088    -1.5679
                     A          A          A          A          A   
    1  C  1  S    0.000028  -0.000021  -0.000007  -0.000002  -0.058242
    2  C  1  S   -0.000052   0.000065   0.000063   0.000002   0.130673
    3  C  1  X   -0.000003   0.000006   0.000031   0.000003   0.048861
    4  C  1  Y   -0.000083   0.000104   0.000016   0.000010  -0.005705
    5  C  1  Z    0.000078  -0.000104  -0.000043  -0.000013  -0.036003
    6  N  2  S   -0.000042   0.000040   0.000073  -0.000002  -0.219401
    7  N  2  S    0.000425  -0.000487  -0.001207   0.000017   0.753254
    8  N  2  X    0.000485  -0.000574  -0.000054   0.000175   0.009883
    9  N  2  Y   -0.000110   0.000115  -0.000495   0.000196   0.044428
   10  N  2  Z   -0.000159   0.000209   0.000420   0.000238  -0.041647
   11  C  3  S    0.000094  -0.000066  -0.000078   0.000005  -0.057393
   12  C  3  S    0.000063   0.000183  -0.000086   0.000016   0.128889
   13  C  3  X    0.000071  -0.000028   0.000066   0.000042  -0.044431
   14  C  3  Y   -0.000418   0.000309   0.000565   0.000014   0.036915
   15  C  3  Z    0.000452  -0.000357  -0.000639   0.000113  -0.017399
   16  C  4  S    0.001630  -0.001326  -0.000022   0.000008  -0.085556
   17  C  4  S   -0.007625   0.010629   0.000171  -0.000068   0.168256
   18  C  4  X   -0.005784   0.007655   0.000881  -0.001317  -0.012533
   19  C  4  Y   -0.000133   0.000175  -0.002943  -0.001807  -0.073259
   20  C  4  Z    0.003609  -0.004803   0.001992  -0.002069   0.069850
   21  CL 5  S   -0.376831  -0.005060  -0.000244   0.000017   0.005977
   22  CL 5  S    1.052777   0.014399   0.000694  -0.000049  -0.020040
   23  CL 5  X   -0.009327   0.825462  -0.361445   0.405822   0.007043
   24  CL 5  Y   -0.001177   0.059795   0.795013   0.586071   0.001826
   25  CL 5  Z    0.006566  -0.539193  -0.465223   0.686235  -0.005810
   26  CL 5  S    0.045636  -0.005686   0.000010   0.000041   0.058274
   27  CL 5  X   -0.004724   0.040040  -0.014850   0.016569  -0.019966
   28  CL 5  Y   -0.000352   0.002803   0.032500   0.023983  -0.004228
   29  CL 5  Z    0.003151  -0.026142  -0.018975   0.028113   0.015636
   30  H  6  S   -0.000025   0.000033  -0.000005   0.000004   0.015901
   31  H  7  S   -0.000007   0.000014  -0.000010  -0.000027   0.017009
   32  H  8  S   -0.000001   0.000008  -0.000011   0.000039   0.016726
   33  H  9  S   -0.000179   0.000111   0.000253  -0.000021   0.015653
   34  H 10  S   -0.000497   0.000168   0.000578  -0.000440   0.016573
   35  H 11  S   -0.000468   0.000138   0.000622   0.000276   0.016791
   36  H 12  S   -0.000125  -0.000060   0.000423  -0.000005   0.027104
   37  H 13  S   -0.000001  -0.000023   0.000010   0.000039   0.005095

                     11         12         13         14         15
                   -1.2629    -1.1915    -1.1502    -0.9817    -0.9163
                     A          A          A          A          A   
    1  C  1  S    0.064002   0.117157  -0.142957   0.052017  -0.006641
    2  C  1  S   -0.176430  -0.337130   0.424752  -0.169848   0.022528
    3  C  1  X   -0.029033  -0.006703   0.005932   0.120396   0.113809
    4  C  1  Y    0.010465  -0.024035  -0.027926  -0.093813   0.145600
    5  C  1  Z    0.015228   0.035977   0.025618  -0.063855   0.152003
    6  N  2  S    0.031308  -0.002911   0.035602  -0.081583  -0.005239
    7  N  2  S   -0.120502   0.012888  -0.138076   0.365759   0.011799
    8  N  2  X    0.084202   0.289386  -0.099851  -0.052062   0.354484
    9  N  2  Y    0.076459  -0.207534  -0.201248  -0.268023   0.418205
   10  N  2  Z   -0.130661   0.021324   0.297599   0.101273   0.380667
   11  C  3  S    0.020305  -0.171952  -0.071861   0.092033   0.016975
   12  C  3  S   -0.055170   0.494858   0.214185  -0.300165  -0.057351
   13  C  3  X    0.026558  -0.022728  -0.014553  -0.181811   0.046155
   14  C  3  Y   -0.000491   0.026484  -0.018700   0.083560   0.218447
   15  C  3  Z   -0.013274  -0.021833   0.033169  -0.049952   0.100960
   16  C  4  S   -0.102365   0.043213   0.078835   0.109740   0.019747
   17  C  4  S    0.276223  -0.115982  -0.203665  -0.345423  -0.069124
   18  C  4  X    0.088362   0.057395   0.078855   0.111692   0.116804
   19  C  4  Y   -0.003766  -0.015381   0.095206  -0.101916  -0.013898
   20  C  4  Z   -0.053086  -0.018500  -0.120856  -0.006641   0.138275
   21  CL 5  S    0.072261  -0.004345   0.039758   0.022596   0.002516
   22  CL 5  S   -0.239877   0.014310  -0.130874  -0.073195  -0.008060
   23  CL 5  X    0.037576  -0.004391   0.002907  -0.021593  -0.012640
   24  CL 5  Y    0.005000   0.003250  -0.001020   0.004203  -0.000890
   25  CL 5  Z   -0.026692  -0.000577  -0.001389   0.012295  -0.011094
   26  CL 5  S    0.769666  -0.048089   0.443824   0.272360   0.031716
   27  CL 5  X   -0.109230   0.013780  -0.009320   0.065055   0.040707
   28  CL 5  Y   -0.016347  -0.010144   0.001886  -0.013234   0.003536
   29  CL 5  Z    0.079062   0.001727   0.005580  -0.037375   0.037335
   30  H  6  S   -0.039656  -0.063841   0.129319  -0.050285   0.009675
   31  H  7  S   -0.034458  -0.089628   0.102666  -0.092640  -0.110492
   32  H  8  S   -0.033845  -0.086491   0.103022  -0.121910   0.128335
   33  H  9  S   -0.019479   0.110945   0.077186  -0.118524  -0.057334
   34  H 10  S   -0.003120   0.117306   0.051067  -0.159306   0.091688
   35  H 11  S   -0.003189   0.120139   0.048704  -0.131428  -0.138582
   36  H 12  S    0.060656  -0.056706  -0.053076  -0.230876  -0.105570
   37  H 13  S   -0.003321   0.001281  -0.001314   0.029353  -0.092835

                     16         17         18         19         20
                   -0.9025    -0.8527    -0.7689    -0.7654    -0.7361
                     A          A          A          A          A   
    1  C  1  S    0.060920  -0.014858  -0.000929   0.002686   0.007776
    2  C  1  S   -0.206699   0.052863   0.003615  -0.011388  -0.029240
    3  C  1  X    0.262902  -0.058457   0.160561   0.161440  -0.227702
    4  C  1  Y   -0.018677  -0.129683   0.384480  -0.162958   0.301817
    5  C  1  Z   -0.115913   0.220610   0.132145   0.320014  -0.170300
    6  N  2  S   -0.014512   0.006530  -0.004059   0.007850  -0.000735
    7  N  2  S    0.076017  -0.019659   0.023087  -0.048549   0.002641
    8  N  2  X   -0.255609   0.352693   0.022049  -0.062868   0.174659
    9  N  2  Y    0.017529  -0.310674  -0.069166   0.173569  -0.064257
   10  N  2  Z    0.391037   0.081158   0.048222  -0.172682  -0.053888
   11  C  3  S   -0.011477   0.032227  -0.001959   0.005024  -0.006482
   12  C  3  S    0.040214  -0.111380   0.007943  -0.020123   0.023826
   13  C  3  X   -0.053939  -0.233221  -0.116110  -0.140339  -0.319155
   14  C  3  Y   -0.039193   0.142264  -0.211402  -0.318309  -0.082580
   15  C  3  Z    0.174527  -0.062547  -0.334817   0.209741   0.320440
   16  C  4  S   -0.028800  -0.070541   0.012892  -0.020302   0.000910
   17  C  4  S    0.107225   0.259698  -0.045406   0.064782  -0.003348
   18  C  4  X   -0.163800   0.040462  -0.045533   0.043024   0.035748
   19  C  4  Y    0.274951   0.165986   0.057988  -0.162169  -0.031453
   20  C  4  Z   -0.092564  -0.169486  -0.024047   0.091272   0.002978
   21  CL 5  S    0.001286  -0.021589   0.002362   0.000808   0.001093
   22  CL 5  S   -0.004200   0.068301  -0.007375  -0.002646  -0.003733
   23  CL 5  X    0.008052   0.063176  -0.007182   0.002223   0.009186
   24  CL 5  Y   -0.026873  -0.013026  -0.000835   0.011722  -0.011370
   25  CL 5  Z    0.013496  -0.025746   0.014880  -0.001854   0.007136
   26  CL 5  S    0.014879  -0.283526   0.032452   0.009619   0.011132
   27  CL 5  X   -0.026009  -0.199871   0.022801  -0.008430  -0.031407
   28  CL 5  Y    0.088689   0.043564   0.002006  -0.039059   0.040383
   29  CL 5  Z   -0.044601   0.079149  -0.049897   0.005334  -0.025936
   30  H  6  S   -0.116994   0.192198  -0.144705   0.291619  -0.271057
   31  H  7  S   -0.174802  -0.015375  -0.196005  -0.248942   0.214107
   32  H  8  S   -0.116855   0.011685   0.333281  -0.010859   0.159227
   33  H  9  S    0.118448  -0.082326  -0.090178   0.323836   0.317129
   34  H 10  S    0.003075  -0.136084  -0.242588  -0.185522  -0.169350
   35  H 11  S   -0.065465  -0.119220   0.284728  -0.008640  -0.234714
   36  H 12  S    0.251718   0.218317   0.049398  -0.122003  -0.028870
   37  H 13  S   -0.015091   0.003424   0.003994  -0.004890  -0.000286

                     21         22         23         24         25
                   -0.7026    -0.6920    -0.6030    -0.5959     0.0268
                     A          A          A          A          A   
    1  C  1  S    0.010336  -0.000193   0.001541  -0.001249   0.015645
    2  C  1  S   -0.040528   0.001050  -0.006391   0.004271  -0.077921
    3  C  1  X   -0.101034  -0.156264   0.014228  -0.011630  -0.076859
    4  C  1  Y   -0.036425  -0.225194   0.032931  -0.012697  -0.028757
    5  C  1  Z    0.161477  -0.183195   0.040077   0.013622   0.020096
    6  N  2  S   -0.006830   0.003124  -0.002603  -0.013655  -0.009479
    7  N  2  S    0.026924  -0.025638   0.016661   0.073060   0.068634
    8  N  2  X    0.186890   0.254783  -0.085381   0.017188  -0.122745
    9  N  2  Y   -0.062609   0.352355  -0.125405   0.090466  -0.198121
   10  N  2  Z   -0.163078   0.325074  -0.139768  -0.059858  -0.168471
   11  C  3  S   -0.005609  -0.002017   0.002099  -0.004835   0.015614
   12  C  3  S    0.020324   0.008096  -0.008567   0.015516  -0.077754
   13  C  3  X   -0.058954  -0.158959   0.013937   0.061776   0.038793
   14  C  3  Y    0.106270  -0.230898   0.001216  -0.016520  -0.071320
   15  C  3  Z    0.022709  -0.210294   0.018028  -0.023601   0.007054
   16  C  4  S    0.030891  -0.002201   0.001246   0.010230   0.003041
   17  C  4  S   -0.148671   0.001695  -0.005020  -0.044159  -0.013781
   18  C  4  X   -0.414998   0.020597   0.059802   0.057613   0.401683
   19  C  4  Y    0.069407   0.094364   0.080864  -0.030456   0.595225
   20  C  4  Z    0.154542   0.165738   0.086674  -0.013036   0.656299
   21  CL 5  S    0.023195   0.003078   0.000032   0.000576   0.000039
   22  CL 5  S   -0.071746  -0.009501  -0.000137  -0.002093  -0.000129
   23  CL 5  X   -0.145530  -0.038786  -0.106035   0.116825   0.030917
   24  CL 5  Y   -0.024692  -0.025728  -0.177396  -0.214814   0.045812
   25  CL 5  Z    0.115982  -0.015206  -0.180927   0.140271   0.050098
   26  CL 5  S    0.328614   0.043890  -0.000059   0.004027   0.000503
   27  CL 5  X    0.483235   0.132330   0.379273  -0.418285  -0.119554
   28  CL 5  Y    0.084261   0.089994   0.634448   0.772159  -0.177168
   29  CL 5  Z   -0.388273   0.055555   0.646687  -0.504934  -0.193846
   30  H  6  S    0.117762   0.027585   0.003457   0.019785   0.011601
   31  H  7  S   -0.009141   0.244099  -0.050377   0.002048  -0.057958
   32  H  8  S    0.026419  -0.276274   0.057831  -0.010414   0.096137
   33  H  9  S   -0.013452   0.019045   0.006438  -0.028395   0.010573
   34  H 10  S    0.019097  -0.294038   0.042411   0.019011   0.093691
   35  H 11  S   -0.085419   0.244800  -0.037784   0.034352  -0.055395
   36  H 12  S    0.225039   0.021152  -0.008158  -0.143997   0.002893
   37  H 13  S    0.006941  -0.081638   0.032636  -0.004860   0.229550

                     26         27         28         29         30
                    0.1163     0.1446     0.2454     0.3115     0.3973
                     A          A          A          A          A   
    1  C  1  S    0.016407  -0.051533   0.074616   0.058565   0.029691
    2  C  1  S   -0.085026   0.270311  -0.401544  -0.319339  -0.171852
    3  C  1  X    0.072371   0.242998  -0.445228  -0.488427  -0.336088
    4  C  1  Y   -0.003725  -0.086676  -0.018103   0.103373   0.637133
    5  C  1  Z    0.064816  -0.159011   0.480382   0.284298  -0.253122
    6  N  2  S    0.032127   0.029419  -0.160246   0.017633  -0.063527
    7  N  2  S   -0.169260  -0.183703   1.041164  -0.116470   0.464426
    8  N  2  X    0.186015   0.115157   0.045531  -0.637294  -0.121931
    9  N  2  Y    0.222040  -0.225282  -0.183520   0.128763   0.227104
   10  N  2  Z    0.272779  -0.003952   0.319921   0.262429  -0.088507
   11  C  3  S    0.028437   0.020413   0.090800  -0.067018   0.012870
   12  C  3  S   -0.147327  -0.107365  -0.488568   0.371689  -0.081607
   13  C  3  X    0.037023   0.140924   0.501598  -0.528280   0.271211
   14  C  3  Y   -0.003164  -0.109176  -0.461464   0.156162   0.308364
   15  C  3  Z    0.095619   0.017900   0.319789   0.094728  -0.344298
   16  C  4  S   -0.023274  -0.144124   0.023413  -0.125218   0.036123
   17  C  4  S    0.131923   0.750871  -0.137149   0.741069  -0.223548
   18  C  4  X    0.047758   0.616581   0.059395  -0.117365   0.209766
   19  C  4  Y   -0.093893  -0.051682   0.084398   0.150222   0.330130
   20  C  4  Z   -0.173431  -0.273730  -0.219427  -0.063159  -0.416832
   21  CL 5  S   -0.004472  -0.022307  -0.000767  -0.006344  -0.004816
   22  CL 5  S    0.012770   0.063209   0.001547   0.018145   0.013044
   23  CL 5  X   -0.040733  -0.176061  -0.014111  -0.046274  -0.036405
   24  CL 5  Y   -0.010547  -0.011253   0.006939   0.002687   0.008359
   25  CL 5  Z    0.014823   0.119833  -0.004181   0.026037   0.013974
   26  CL 5  S   -0.078180  -0.396389  -0.020998  -0.111989  -0.093028
   27  CL 5  X    0.162746   0.710856   0.058890   0.190834   0.153875
   28  CL 5  Y    0.041232   0.045777  -0.027081  -0.010057  -0.035131
   29  CL 5  Z   -0.060698  -0.483584   0.014397  -0.108086  -0.059424
   30  H  6  S   -0.034434  -0.143457  -0.138758   0.066655   0.707327
   31  H  7  S    0.094912  -0.011591   0.168234  -0.056558  -0.273329
   32  H  8  S    0.019583   0.020834   0.058963  -0.020696  -0.365651
   33  H  9  S   -0.004361   0.040754  -0.087726  -0.384371   0.537350
   34  H 10  S    0.020114   0.005856   0.053290   0.127282  -0.250179
   35  H 11  S    0.091970  -0.019115   0.158904   0.136075  -0.119906
   36  H 12  S   -0.038136  -0.085481   0.065332  -0.656416  -0.035566
   37  H 13  S    0.989681  -0.190562  -0.100669  -0.034723   0.059989

                     31         32         33         34         35
                    0.4330     0.4517     0.4624     0.4689     0.5050
                     A          A          A          A          A   
    1  C  1  S    0.007701   0.008567  -0.024653  -0.178439   0.122674
    2  C  1  S   -0.045152  -0.056649   0.149373   1.119905  -0.785239
    3  C  1  X   -0.437233   0.445652  -0.138161  -0.298045   0.227234
    4  C  1  Y   -0.564600   0.313177   0.365987   0.182823   0.151377
    5  C  1  Z   -0.455667   0.387104  -0.369608   0.156415  -0.360033
    6  N  2  S   -0.001821   0.012237   0.000193   0.008782   0.000876
    7  N  2  S    0.012177  -0.085421  -0.014033  -0.035713  -0.006529
    8  N  2  X   -0.011723  -0.115047   0.132684   0.112951  -0.002447
    9  N  2  Y    0.034158  -0.138665  -0.051878   0.040871  -0.002495
   10  N  2  Z    0.029499  -0.196610  -0.048315  -0.115625   0.007465
   11  C  3  S   -0.005677   0.000565   0.090633  -0.116815  -0.146375
   12  C  3  S    0.033424  -0.007626  -0.565111   0.737473   0.936231
   13  C  3  X    0.246805   0.176225  -0.518579   0.203419   0.201526
   14  C  3  Y    0.490400   0.630027  -0.156701  -0.186433  -0.355604
   15  C  3  Z    0.363562   0.534743   0.525880   0.266050   0.304365
   16  C  4  S    0.003397  -0.004112   0.042788   0.015722   0.006846
   17  C  4  S   -0.021404   0.023418  -0.277957  -0.102383  -0.046227
   18  C  4  X    0.006814   0.042109   0.267747   0.023983   0.105308
   19  C  4  Y   -0.023215   0.061162  -0.246943   0.044883  -0.073780
   20  C  4  Z   -0.014974   0.100353   0.051686  -0.009877   0.001714
   21  CL 5  S    0.000016  -0.000012  -0.001027   0.001275   0.000070
   22  CL 5  S   -0.000070   0.000084   0.002529  -0.003883  -0.000750
   23  CL 5  X   -0.001400   0.001721  -0.000302   0.002415  -0.005845
   24  CL 5  Y   -0.002725   0.000437  -0.007873   0.005028   0.002183
   25  CL 5  Z   -0.002338   0.002062   0.007023  -0.005635   0.000504
   26  CL 5  S    0.000017   0.000324  -0.022900   0.019730  -0.005338
   27  CL 5  X    0.005578  -0.007273   0.003129  -0.010457   0.025151
   28  CL 5  Y    0.010665  -0.002135   0.033307  -0.020326  -0.007954
   29  CL 5  Z    0.009141  -0.008645  -0.030940   0.022887  -0.003854
   30  H  6  S   -0.053410  -0.037596   0.437916  -0.426117   0.713841
   31  H  7  S   -0.624283   0.601894  -0.342775  -0.628424   0.317031
   32  H  8  S    0.716974  -0.411153  -0.238881  -0.691850   0.328432
   33  H  9  S    0.060648  -0.005140  -0.390565  -0.509151  -0.783641
   34  H 10  S   -0.572869  -0.607107   0.572424  -0.436836  -0.426017
   35  H 11  S    0.475545   0.700758   0.669047  -0.291039  -0.409542
   36  H 12  S    0.026299  -0.008780   0.459266   0.063625   0.102746
   37  H 13  S    0.008020  -0.066054  -0.036610   0.121028   0.011143

                     36         37
                    0.5275     0.5878
                     A          A   
    1  C  1  S    0.036399  -0.013755
    2  C  1  S   -0.214530   0.074183
    3  C  1  X   -0.154285   0.250400
    4  C  1  Y   -0.194822  -0.300394
    5  C  1  Z    0.397374   0.015224
    6  N  2  S   -0.010994  -0.066082
    7  N  2  S    0.078711   0.540649
    8  N  2  X   -0.572412   0.217982
    9  N  2  Y    0.417459   0.628713
   10  N  2  Z   -0.030127  -0.717214
   11  C  3  S   -0.065825  -0.012217
   12  C  3  S    0.398252   0.069622
   13  C  3  X   -0.239766  -0.322049
   14  C  3  Y    0.200332  -0.086372
   15  C  3  Z   -0.193141   0.197535
   16  C  4  S    0.093057   0.080873
   17  C  4  S   -0.627610  -0.552020
   18  C  4  X    0.717125   0.035160
   19  C  4  Y   -0.386195   0.796048
   20  C  4  Z   -0.083378  -0.700361
   21  CL 5  S   -0.004891  -0.001218
   22  CL 5  S    0.012538   0.002738
   23  CL 5  X   -0.024817  -0.018377
   24  CL 5  Y   -0.010987   0.024127
   25  CL 5  Z    0.025483  -0.009092
   26  CL 5  S   -0.103103  -0.029821
   27  CL 5  X    0.109994   0.079469
   28  CL 5  Y    0.046396  -0.101183
   29  CL 5  Z   -0.110470   0.036790
   30  H  6  S   -0.268293  -0.197338
   31  H  7  S    0.149353   0.132932
   32  H  8  S    0.098782   0.193267
   33  H  9  S    0.010945  -0.258686
   34  H 10  S   -0.068883   0.178639
   35  H 11  S   -0.152564   0.125409
   36  H 12  S    0.929838  -0.263630
   37  H 13  S    0.004539  -0.025030
 ...... END OF UHF CALCULATION ......
 STEP CPU TIME =     0.13 TOTAL CPU TIME =          0.3 (      0.0 MIN)
 TOTAL WALL CLOCK TIME=          0.3 SECONDS, CPU UTILIZATION IS    89.66%

     ----------------------------------------------------------------
     PROPERTY VALUES FOR THE UHF   SELF-CONSISTENT FIELD WAVEFUNCTION
     ----------------------------------------------------------------

          -----------------
          ENERGY COMPONENTS
          -----------------

         WAVEFUNCTION NORMALIZATION =       1.0000000000

                ONE ELECTRON ENERGY =   -1314.6322201535
                TWO ELECTRON ENERGY =     454.9671481660
           NUCLEAR REPULSION ENERGY =     234.8115123634
                                      ------------------
                       TOTAL ENERGY =    -624.8535596241

 ELECTRON-ELECTRON POTENTIAL ENERGY =     454.9671481660
  NUCLEUS-ELECTRON POTENTIAL ENERGY =   -1929.5221159663
   NUCLEUS-NUCLEUS POTENTIAL ENERGY =     234.8115123634
                                      ------------------
             TOTAL POTENTIAL ENERGY =   -1239.7434554368
               TOTAL KINETIC ENERGY =     614.8898958127
                 VIRIAL RATIO (V/T) =       2.0162039804

          ---------------------------------------
          MULLIKEN AND LOWDIN POPULATION ANALYSES
          ---------------------------------------

     ATOMIC MULLIKEN POPULATION IN EACH MOLECULAR ORBITAL
        ALPHA ORBITALS

                      1          2          3          4          5

                  1.000000   1.000000   1.000000   1.000000   1.000000

    1             0.000000  -0.000291  -0.000001   1.001485   0.000140
    2            -0.000000   1.001191  -0.000541  -0.000302  -0.000303
    3             0.000000  -0.000288  -0.000001   0.000138   1.001485
    4             0.000003  -0.000583   1.001250  -0.000000  -0.000000
    5             0.999997   0.000000  -0.000215  -0.000000  -0.000000
    6             0.000000   0.000001  -0.000000  -0.000440  -0.000000
    7             0.000000   0.000001  -0.000000  -0.000437  -0.000000
    8             0.000000   0.000001  -0.000000  -0.000441  -0.000000
    9             0.000000   0.000001  -0.000000   0.000000  -0.000441
   10             0.000000   0.000001  -0.000000  -0.000000  -0.000441
   11             0.000000   0.000001  -0.000000  -0.000000  -0.000437
   12             0.000000   0.000002  -0.000487  -0.000000  -0.000000
   13            -0.000000  -0.000037  -0.000005  -0.000002  -0.000002

                      6          7          8          9         10

                  1.000000   1.000000   1.000000   1.000000   1.000000

    1            -0.000000  -0.000000  -0.000000  -0.000000   0.073859
    2             0.000001   0.000001   0.000000   0.000000   0.575393
    3            -0.000001  -0.000000   0.000000  -0.000001   0.072571
    4            -0.000530  -0.000398  -0.000018  -0.000022   0.227701
    5             1.000532   1.000398   1.000019   1.000023   0.019033
    6            -0.000000  -0.000000  -0.000000  -0.000000   0.002248
    7            -0.000000  -0.000000  -0.000000   0.000000   0.002648
    8            -0.000000  -0.000000  -0.000000   0.000000   0.002728
    9            -0.000000  -0.000000  -0.000000  -0.000000   0.002194
   10            -0.000001  -0.000000  -0.000000  -0.000000   0.002706
   11            -0.000000  -0.000000  -0.000000  -0.000000   0.002610
   12            -0.000001   0.000000  -0.000000   0.000000   0.007658
   13             0.000000   0.000000  -0.000000  -0.000000   0.008650

                     11         12         13         14         15

                  1.000000   1.000000   1.000000   1.000000   1.000000

    1             0.079297   0.140115   0.262732   0.071759   0.191225
    2             0.107512   0.209381   0.175652   0.109494   0.240705
    3             0.031281   0.382130   0.023038   0.188589   0.068004
    4             0.224717   0.050291   0.118936   0.244072   0.231251
    5             0.512391   0.010803   0.283304   0.079814   0.019272
    6             0.008647   0.009841   0.050500   0.009495   0.017534
    7             0.005993   0.022131   0.034478   0.016033   0.025648
    8             0.005695   0.020566   0.033288   0.022789   0.059431
    9             0.004448   0.044235   0.007971   0.043912   0.017013
   10             0.001063   0.048143   0.002196   0.044951   0.013832
   11             0.001148   0.050969   0.001962   0.036367   0.001970
   12             0.015921   0.011230   0.005892   0.122848   0.091728
   13             0.001887   0.000165   0.000050   0.009878   0.022387

                     16         17         18         19         20

                  1.000000   1.000000   1.000000   1.000000   1.000000

    1             0.138152   0.149649   0.225957   0.266268   0.257779
    2             0.242426   0.256759   0.046523   0.016763   0.029983
    3             0.120088   0.169480   0.255547   0.264006   0.274504
    4             0.157779   0.126894   0.053665   0.019148   0.010184
    5             0.012100   0.121038   0.004272   0.005086   0.009384
    6             0.002139   0.078512   0.102926   0.022176   0.103253
    7             0.063437   0.000230   0.000002   0.133354   0.061311
    8             0.012176   0.000149   0.090767   0.060554   0.037043
    9             0.000100   0.017492   0.122953   0.055011   0.110727
   10             0.018145   0.033058   0.007711   0.113576   0.037470
   11             0.049797   0.026558   0.066156   0.038679   0.066477
   12             0.001097   0.020038   0.022358   0.005277   0.001885
   13             0.182563   0.000143   0.001162   0.000101   0.000000

                     21         22         23         24         25

                  1.000000   1.000000   1.000000   1.000000   1.000000

    1             0.112282   0.076168   0.027642   0.000656   0.001716
    2             0.036406   0.077991   0.025236   0.010778   0.029025
    3             0.165630   0.032774   0.020870   0.005860   0.002041
    4             0.291318   0.290554   0.082961   0.006779   0.282357
    5             0.117780   0.423855   0.399198   0.955254   0.462983
    6             0.000023   0.019996   0.000401   0.000466   0.000233
    7             0.036950   0.008213   0.010534   0.000012   0.000282
    8             0.059713   0.000710   0.017337   0.000062   0.000017
    9             0.001606   0.000562   0.000594   0.000640   0.000150
   10             0.075219   0.008804   0.014274   0.000483   0.000035
   11             0.062823   0.003973   0.008951   0.000937   0.000117
   12             0.002909   0.053800   0.000001   0.017725   0.000010
   13             0.037341   0.002599   0.392001   0.000349   0.221033

     ATOMIC MULLIKEN POPULATION IN EACH MOLECULAR ORBITAL
         BETA ORBITALS

                      1          2          3          4          5

                  1.000000   1.000000   1.000000   1.000000   1.000000

    1             0.000000  -0.000315   0.000002   1.001475   0.000139
    2            -0.000000   1.001286  -0.000475  -0.000302  -0.000303
    3             0.000000  -0.000311   0.000001   0.000137   1.001476
    4             0.000003  -0.000630   1.001096   0.000002   0.000002
    5             0.999997   0.000000  -0.000190  -0.000000  -0.000000
    6             0.000000   0.000001  -0.000000  -0.000437  -0.000000
    7             0.000000   0.000001  -0.000000  -0.000434  -0.000000
    8             0.000000   0.000001  -0.000000  -0.000438  -0.000000
    9             0.000000   0.000001  -0.000000   0.000000  -0.000438
   10             0.000000   0.000001  -0.000000  -0.000000  -0.000438
   11             0.000000   0.000001  -0.000000  -0.000000  -0.000434
   12             0.000000   0.000002  -0.000429  -0.000000  -0.000000
   13            -0.000000  -0.000039  -0.000004  -0.000002  -0.000002

                      6          7          8          9         10

                  1.000000   1.000000   1.000000   1.000000   1.000000

    1            -0.000000  -0.000000  -0.000000  -0.000000   0.068749
    2             0.000001   0.000001   0.000000   0.000000   0.708246
    3            -0.000001  -0.000000  -0.000001   0.000000   0.067303
    4            -0.000527  -0.000395  -0.000022  -0.000018   0.128495
    5             1.000529   1.000394   1.000023   1.000019   0.008236
    6            -0.000000  -0.000000   0.000000  -0.000000   0.002099
    7            -0.000000  -0.000000   0.000000  -0.000000   0.002331
    8            -0.000000  -0.000000   0.000000  -0.000000   0.002365
    9            -0.000000  -0.000000  -0.000000  -0.000000   0.002048
   10            -0.000001  -0.000000  -0.000000  -0.000000   0.002326
   11            -0.000000  -0.000000  -0.000000  -0.000000   0.002278
   12            -0.000001   0.000000   0.000000  -0.000000   0.004424
   13            -0.000000   0.000000  -0.000000  -0.000000   0.001102

                     11         12         13         14         15

                  1.000000   1.000000   1.000000   1.000000   1.000000

    1             0.052892   0.166576   0.246945   0.090009   0.107078
    2             0.073111   0.232618   0.234386   0.178873   0.539397
    3             0.007809   0.352406   0.068652   0.190432   0.115703
    4             0.171526   0.032476   0.113004   0.178658   0.071941
    5             0.664996   0.002693   0.176573   0.062682   0.005347
    6             0.006274   0.013217   0.052929   0.006503   0.000159
    7             0.004581   0.027098   0.032651   0.019720   0.022857
    8             0.004416   0.025435   0.032913   0.033937   0.030345
    9             0.001572   0.041309   0.019474   0.032980   0.006465
   10             0.000016   0.046882   0.008364   0.057666   0.015107
   11             0.000022   0.049002   0.007616   0.039451   0.037053
   12             0.012688   0.010273   0.006514   0.106883   0.019925
   13             0.000098   0.000015  -0.000021   0.002206   0.028624

                     16         17         18         19         20

                  1.000000   1.000000   1.000000   1.000000   1.000000

    1             0.198232   0.116955   0.280825   0.227600   0.237000
    2             0.262737   0.248831   0.006931   0.057242   0.033359
    3             0.065494   0.148048   0.251281   0.241012   0.293735
    4             0.201364   0.155754   0.008877   0.046013   0.002484
    5             0.016384   0.120810   0.004408   0.001909   0.003880
[...]
  8   H            X  0.24682060  0.24771052  0.05895017 -0.00377343 -0.08457394
                   Y  0.01672971 -0.14629867 -0.00139203  0.07559383  0.05540803
                   Z -0.28597049 -0.09524447 -0.10628248 -0.11068384  0.07308496
  9   H            X  0.12385130 -0.13521433 -0.04065411  0.11954571  0.03475585
                   Y -0.01253255  0.13137191  0.01788872 -0.04774296  0.05732238
                   Z  0.13451356  0.06170015 -0.03789631  0.11657860  0.10979762
 10   H            X -0.16027944 -0.29467399  0.08744115 -0.05759523 -0.09317497
                   Y  0.14217805  0.08700849 -0.07632277  0.08213103 -0.04422829
                   Z -0.10284947 -0.02802211  0.08038416 -0.13194921  0.04730257
 11   H            X  0.08808391  0.26654995  0.02302612  0.08168697  0.13497057
                   Y  0.06779707 -0.11297073 -0.06024797  0.12134455 -0.06448296
                   Z  0.03542310  0.18481241  0.02906706  0.02468802  0.08475727
 12   H            X  0.07535758  0.01422190 -0.34843460 -0.02047414 -0.08074902
                   Y  0.00685048  0.03751720 -0.35344618 -0.03470534 -0.09789684
                   Z -0.08087793 -0.02157621  0.57270423  0.00240402  0.13266094
 13   H            X  0.01907245 -0.01086178 -0.29194876  0.15600309  0.64124114
                   Y  0.40225294 -0.11856919  0.06750131 -0.49911248 -0.11505977
                   Z -0.30550327  0.25872570  0.11262714  0.50590756 -0.28036877

 TRANS. SAYVETZ    X -0.00000103 -0.00000038  0.00000078  0.00000064  0.00000075
                   Y -0.00000142  0.00000001 -0.00000132  0.00000070 -0.00000035
                   Z  0.00000324 -0.00000043  0.00000004 -0.00000179  0.00000040
               TOTAL  0.00000368  0.00000058  0.00000154  0.00000203  0.00000092

   ROT. SAYVETZ    X  0.00000824  0.00004123  0.00020899 -0.00001171  0.00007132
                   Y -0.00002484  0.00014435  0.00031940 -0.00000763  0.00006419
                   Z -0.00017066 -0.00002149  0.00032412 -0.00001932  0.00008939
               TOTAL  0.00017265  0.00015166  0.00050074  0.00002385  0.00013114

                           26          27          28          29          30
       FREQUENCY:      1660.72     1696.44     1738.62     1740.20     1748.36  
        SYMMETRY:         A           A           A           A           A   
    REDUCED MASS:      1.17026     1.20260     1.05318     1.04622     1.04878
    IR INTENSITY:      0.07651     0.00275     0.26969     0.25276     0.51301

  1   C            X -0.05703434 -0.05753560  0.00501714  0.01395071 -0.03715926
                   Y  0.01514419  0.02181264 -0.03226571  0.02147092  0.00069929
                   Z  0.04704701  0.06280199  0.02184758  0.01334301 -0.02702867
  2   N            X  0.00128225 -0.00710794  0.01841085  0.01717562 -0.00717929
                   Y  0.00159256 -0.00550457 -0.00672785 -0.00798642  0.00473238
                   Z -0.00211719  0.00343601 -0.00523847 -0.00774094 -0.02005110
  3   C            X -0.06677821  0.06496769  0.02083879 -0.00784426  0.01658860
                   Y  0.03815972 -0.03181044  0.02114751 -0.03144231 -0.01045615
                   Z -0.03105063  0.03580488 -0.03126602 -0.03086906 -0.02211774
  4   C            X -0.00461648  0.00999374 -0.00423283 -0.00177776  0.00050903
                   Y  0.00046928  0.01070487  0.00045902 -0.00046210 -0.00132614
                   Z  0.00434154 -0.01263301  0.00314347  0.00191784  0.00135785
  5   CL           X  0.00030432 -0.00051402  0.00016046 -0.00009631  0.00000185
                   Y -0.00026605 -0.00019842 -0.00019844 -0.00006496 -0.00011841
                   Z -0.00050950  0.00126027 -0.00022256  0.00005566  0.00011883
  6   H            X  0.23281940  0.20888612  0.01673708 -0.29574638  0.38358615
                   Y -0.20137887 -0.23751870 -0.16986220 -0.00364042  0.15155142
                   Z -0.16195114 -0.22611524 -0.20001381 -0.16440563  0.41231725
  7   H            X  0.14339488  0.14389889  0.04086418 -0.16602076  0.18925599
                   Y -0.02666762 -0.06770823  0.30170878 -0.31268445  0.14227173
                   Z -0.31496400 -0.33395643  0.19102146  0.06595800 -0.28411759
  8   H            X  0.32756128  0.35352004 -0.19495868  0.18471798 -0.04212785
                   Y  0.00643891  0.03726948  0.33063702 -0.00188811 -0.30173841
                   Z -0.16806921 -0.19384653 -0.27197967 -0.06752238  0.32889488
  9   H            X  0.37810012 -0.33302310  0.19209850 -0.17371114  0.00447702
                   Y -0.05972201  0.03458590  0.12026670  0.30945569  0.18481839
                   Z  0.07609862 -0.09594617  0.24871098  0.43132226  0.30189340
 10   H            X  0.27979330 -0.23905995 -0.31049194  0.14756312 -0.11041198
                   Y -0.26580525  0.24455220 -0.18598140 -0.26603993 -0.18071588
                   Z  0.07218651 -0.06358925  0.38529436  0.12858768  0.23690383
 11   H            X  0.20776007 -0.19637150 -0.23577577  0.09275073 -0.08909398
                   Y -0.14354171  0.10396036 -0.19392567  0.47039570  0.10922232
                   Z  0.29575098 -0.26195467 -0.19527473 -0.09958796 -0.15808648
 12   H            X  0.00726911 -0.03405254  0.00998790  0.00934102 -0.00784386
                   Y  0.01184609 -0.02815246  0.01411160  0.00991812 -0.01022976
                   Z -0.01302291  0.04808172 -0.01215099 -0.01291459  0.00903652
 13   H            X -0.07589112  0.00531141 -0.03729831 -0.08573768  0.01071600
                   Y  0.02566544 -0.01204138  0.01032638  0.03193336 -0.02486134
                   Z  0.01890648  0.01218171  0.00961482  0.01003086 -0.00335753

 TRANS. SAYVETZ    X -0.00000054  0.00000030 -0.00000027  0.00000003 -0.00000008
                   Y -0.00000034 -0.00000103 -0.00000024  0.00000006 -0.00000009
                   Z  0.00000012  0.00000033 -0.00000005  0.00000006  0.00000041
               TOTAL  0.00000065  0.00000112  0.00000036  0.00000009  0.00000043

   ROT. SAYVETZ    X -0.00000892  0.00002258 -0.00000600 -0.00001895 -0.00000925
                   Y  0.00000603  0.00002455 -0.00001984 -0.00001603 -0.00001317
                   Z  0.00000613  0.00002396 -0.00000399 -0.00000868  0.00000283
               TOTAL  0.00001239  0.00004107  0.00002111  0.00002630  0.00001634

                           31          32          33          34          35
       FREQUENCY:      1753.09     3576.82     3579.66     3669.66     3764.06  
        SYMMETRY:         A           A           A           A           A   
    REDUCED MASS:      1.05578     1.03576     1.03556     1.09376     1.11477
    IR INTENSITY:      1.05317     0.15295     0.08385     0.58598     0.29531

  1   C            X -0.00803593 -0.03379162 -0.01095232  0.00052976  0.03176669
                   Y -0.03461020  0.01074765  0.00364166 -0.00058575 -0.06034557
                   Z  0.00327999  0.03106264  0.00964511  0.00067600  0.05506471
  2   N            X -0.01208177  0.00238466 -0.00122608  0.00000858 -0.00050064
                   Y -0.03042023 -0.00073054  0.00096994 -0.00205636  0.00034896
                   Z  0.01784470 -0.00114459 -0.00132207  0.00101328 -0.00031058
  3   C            X -0.01764512 -0.01155632  0.03703153  0.00048565  0.01886153
                   Y -0.02677675  0.00638845 -0.01986370  0.00004283  0.01041744
                   Z  0.00457877 -0.00693295  0.02095921 -0.00001954 -0.02404902
  4   C            X  0.00392817  0.00030045  0.00015771 -0.05858233  0.00102921
                   Y  0.00694225 -0.00015459 -0.00031333  0.06072442 -0.00088637
                   Z -0.01008420 -0.00013915 -0.00001917 -0.00396739 -0.00015357
  5   CL           X -0.00027112  0.00001160 -0.00001111  0.00062729 -0.00000969
                   Y  0.00007657 -0.00000612  0.00004637 -0.00047709  0.00003388
                   Z  0.00059482  0.00000631 -0.00006538 -0.00097869 -0.00000589
  6   H            X  0.29117325  0.12760430  0.04037978  0.00229727  0.13799407
                   Y -0.13222529  0.44491374  0.14153177  0.00622451  0.51249183
                   Z -0.02715154 -0.27763030 -0.08817093 -0.00448769 -0.30879991
  7   H            X  0.16548113  0.43659412  0.13824770 -0.00568492 -0.50217062
                   Y  0.46487678 -0.18905920 -0.05985159  0.00165160  0.21779959
                   Z  0.07147887  0.26733262  0.08516476 -0.00313002 -0.32172876
  8   H            X -0.29070145 -0.19389111 -0.06202311 -0.00074054 -0.01049712
                   Y  0.23056602 -0.37380672 -0.11957751 -0.00131922 -0.02060059
                   Z -0.12428838 -0.32853631 -0.10502620 -0.00110389 -0.01667008
  9   H            X -0.26930087 -0.05222950  0.16466687 -0.00007511 -0.07209262
                   Y  0.08639226 -0.14217844  0.44546549 -0.00296520 -0.18331950
                   Z  0.02590076  0.08483648 -0.26610254  0.00190184  0.10840936
 10   H            X  0.31265367  0.06606277 -0.20891033 -0.00198785  0.00379228
                   Y -0.00584907  0.11283285 -0.35701661 -0.00331323  0.00682023
                   Z -0.21175666  0.10842885 -0.34271204 -0.00338821  0.00635642
 11   H            X  0.22400433  0.11523967 -0.35967493 -0.00498332 -0.15664402
                   Y  0.38370464 -0.04114211  0.12831527  0.00152046  0.05595473
                   Z  0.09297121 -0.12094436  0.37926106  0.00534347  0.16987913
 12   H            X -0.00777094  0.00021297 -0.00360853  0.68131912 -0.00883660
                   Y -0.00166501 -0.00019486  0.00423826 -0.66178353  0.00808323
                   Z  0.01463226 -0.00000080 -0.00101883  0.06773671 -0.00097061
 13   H            X  0.01074425  0.00324348 -0.00405531 -0.00658950  0.00067069
                   Y  0.04247590 -0.00319792 -0.00130702 -0.01146129  0.00178601
                   Z -0.08386808 -0.00345287 -0.00492960 -0.00357007  0.00057399

 TRANS. SAYVETZ    X  0.00000029 -0.00000042 -0.00000033  0.00000018 -0.00000004
                   Y  0.00000001  0.00000047  0.00000005 -0.00000049 -0.00000003
                   Z -0.00000024  0.00000005 -0.00000009  0.00000038  0.00000000
               TOTAL  0.00000038  0.00000064  0.00000034  0.00000065  0.00000005

   ROT. SAYVETZ    X  0.00000342  0.00000146 -0.00000051  0.00000136  0.00000100
                   Y  0.00000790 -0.00000179  0.00000033  0.00000122 -0.00000020
                   Z  0.00003516 -0.00000447 -0.00000124  0.00000530 -0.00000077
               TOTAL  0.00003620  0.00000503  0.00000138  0.00000561  0.00000128

                           36          37          38          39
       FREQUENCY:      3767.22     3767.32     3769.43     3887.10  
        SYMMETRY:         A           A           A           A   
    REDUCED MASS:      1.11585     1.11530     1.11553     1.07905
    IR INTENSITY:      0.20863     0.59142     0.57899     1.87996

  1   C            X -0.05426467  0.01228462 -0.01569392 -0.00192117
                   Y -0.04561289  0.04628716 -0.02052008 -0.00096962
                   Z -0.04195462 -0.00280773 -0.00946016 -0.00030569
  2   N            X  0.00095129 -0.00063013  0.00133936 -0.02716171
                   Y  0.00111912 -0.00066755  0.00292396 -0.04884171
                   Z  0.00135517  0.00045954  0.00215228 -0.04411004
  3   C            X  0.02691751  0.04262353 -0.01939168  0.00028784
                   Y  0.03063192  0.00854191 -0.07824695 -0.00224895
                   Z -0.01881218 -0.06763267 -0.03885850 -0.00080212
  4   C            X  0.00042134  0.00016443 -0.00028658 -0.00074617
                   Y -0.00024638 -0.00027686  0.00029519  0.00116711
                   Z  0.00001606  0.00033069 -0.00010500  0.00007247
  5   CL           X -0.00000325 -0.00000955 -0.00000371  0.00002428
                   Y  0.00001332  0.00001812  0.00001491  0.00000593
                   Z -0.00000634 -0.00003143 -0.00003013 -0.00002502
  6   H            X  0.05447811 -0.08187452  0.03033888  0.00291802
                   Y  0.20625927 -0.30648903  0.11478996  0.01096289
                   Z -0.12522381  0.18479592 -0.06968575 -0.00508286
  7   H            X  0.32566282  0.05014502  0.06715351  0.01078839
                   Y -0.14268126 -0.02126270 -0.02953380 -0.00346022
                   Z  0.20986325  0.03318010  0.04368241  0.00811919
  8   H            X  0.25574237 -0.11639692  0.08563933  0.00180807
                   Y  0.47105160 -0.21387812  0.15726029  0.01426025
                   Z  0.40683345 -0.18551690  0.13595456  0.01596118
  9   H            X -0.11724969 -0.14736566  0.14131665  0.00540912
                   Y -0.29727773 -0.37361422  0.35715879  0.01189105
                   Z  0.17572262  0.22070674 -0.21261154 -0.00549940
 10   H            X -0.06127574  0.06744116  0.27331812  0.01279181
                   Y -0.11089659  0.12231215  0.49594378  0.01041791
                   Z -0.10421536  0.11340680  0.46345012  0.01566338
 11   H            X -0.13508208 -0.42172504 -0.18769155 -0.00763825
                   Y  0.04843447  0.14961473  0.06512634  0.00370549
                   Z  0.14855068  0.46111752  0.20494782  0.01041630
 12   H            X -0.00105557 -0.00200043  0.00218140  0.00879815
                   Y  0.00063860  0.00136727 -0.00132475 -0.00631068
                   Z  0.00010009 -0.00008745 -0.00014603 -0.00129639
 13   H            X -0.01372401  0.00512319 -0.00956672  0.37000858
                   Y -0.01023071  0.00105257 -0.02807714  0.66137788
                   Z -0.00689152  0.00188721 -0.01787843  0.58779465

 TRANS. SAYVETZ    X -0.00000001  0.00000002 -0.00000002 -0.00000014
                   Y -0.00000001 -0.00000000 -0.00000006  0.00000005
                   Z  0.00000004 -0.00000003  0.00000001  0.00000010
               TOTAL  0.00000005  0.00000004  0.00000006  0.00000019

   ROT. SAYVETZ    X -0.00000112  0.00000065 -0.00000032 -0.00000096
                   Y -0.00000015  0.00000075  0.00000016  0.00000061
                   Z -0.00000035 -0.00000128  0.00000056  0.00000004
               TOTAL  0.00000118  0.00000162  0.00000066  0.00000114

 REFERENCE ON SAYVETZ CONDITIONS - A. SAYVETZ, J.CHEM.PHYS., 7, 383-389(1939).

 NOTE - THE MODES J,K ARE ORTHONORMALIZED ACCORDING TO
 SUM ON I   M(I) * (X(I,J)*X(I,K) + Y(I,J)*Y(I,K) + Z(I,J)*Z(I,K)) = DELTA(J,K)

  MODE FREQ(CM**-1)  SYMMETRY  RED. MASS  IR INTENS.
     1       0.232    A        6.238452    0.004037
     2       0.097    A        7.377009    0.000202
     3       0.027    A        7.113631    0.000008
     4       1.162    A        5.617802    0.123152
     5       2.322    A        4.977951    0.124042
     6       3.993    A        2.636549    0.023699
     7      63.420    A        3.018501    0.098778
     8     215.795    A        1.037161    0.000802
     9     229.576    A        1.912966    0.108077
    10     264.410    A        1.526930    0.084902
    11     380.731    A        2.947153    0.050065
    12     437.782    A        2.188782    0.032020
    13     482.118    A        2.833178    0.067486
    14     711.321    A        1.645120    0.132455
    15     937.088    A        3.452017    0.178846
    16    1028.186    A        3.303816    0.080603
    17    1165.115    A        2.025012    1.020935
    18    1181.085    A        2.119412    0.773737
    19    1186.295    A        1.117070    0.097213
    20    1317.592    A        1.494339    0.239368
    21    1351.576    A        1.435421    0.041510
    22    1424.915    A        1.587848    0.167227
    23    1464.018    A        1.294624    0.893117
    24    1610.701    A        1.466013    1.035664
    25    1621.341    A        1.459631    1.788293
    26    1660.724    A        1.170258    0.076511
    27    1696.441    A        1.202601    0.002748
    28    1738.618    A        1.053178    0.269687
    29    1740.202    A        1.046222    0.252758
    30    1748.362    A        1.048776    0.513008
    31    1753.095    A        1.055781    1.053167
    32    3576.819    A        1.035761    0.152949
    33    3579.655    A        1.035560    0.083845
    34    3669.657    A        1.093758    0.585976
    35    3764.056    A        1.114775    0.295312
    36    3767.215    A        1.115850    0.208632
    37    3767.322    A        1.115301    0.591425
    38    3769.434    A        1.115527    0.578990
    39    3887.103    A        1.079052    1.879963

     -------------------------------
     THERMOCHEMISTRY AT T=  298.15 K
     -------------------------------

 USING IDEAL GAS, RIGID ROTOR, HARMONIC NORMAL MODE APPROXIMATIONS.
 P=  1.01325E+05 PASCAL.
 ALL FREQUENCIES ARE SCALED BY   1.00000
 THE MOMENTS OF INERTIA ARE (IN AMU*BOHR**2)
            227.92334           836.30125          1002.68764
 THE ROTATIONAL SYMMETRY NUMBER IS  1.0
 THE ROTATIONAL CONSTANTS ARE (IN GHZ)
      7.91094     2.15603     1.79826
      7 -     39 VIBRATIONAL MODES ARE USED IN THERMOCHEMISTRY.
 THE HARMONIC ZERO POINT ENERGY IS (SCALED BY   1.000)
        0.130292 HARTREE/MOLECULE    28595.884408 CM**-1/MOLECULE 
       81.759818 KCAL/MOL              342.083080 KJ/MOL

               Q               LN Q
 ELEC.     2.00000E+00       0.693147
 TRANS.    3.52712E+07      17.378577
 ROT.      1.56495E+05      11.960778
 VIB.      1.94963E+01       2.970225
 TOT.      2.15230E+14      33.002727

              E         H         G         CV        CP        S
           KJ/MOL    KJ/MOL    KJ/MOL   J/MOL-K   J/MOL-K   J/MOL-K
 ELEC.      0.000     0.000    -1.718     0.000     0.000     5.763
 TRANS.     3.718     6.197   -43.080    12.472    20.786   165.279
 ROT.       3.718     3.718   -29.650    12.472    12.472   111.918
 VIB.     351.165   351.165   334.720    60.783    60.783    55.157
 TOTAL    358.602   361.081   260.271    85.726    94.040   338.117
 VIB. THERMAL CORRECTION E(T)-E(0) = H(T)-H(0) =      9082.156 J/MOL

              E         H         G         CV        CP        S
         KCAL/MOL  KCAL/MOL  KCAL/MOL CAL/MOL-K CAL/MOL-K CAL/MOL-K
 ELEC.      0.000     0.000    -0.411     0.000     0.000     1.377
 TRANS.     0.889     1.481   -10.296     2.981     4.968    39.503
 ROT.       0.889     0.889    -7.087     2.981     2.981    26.749
 VIB.      83.931    83.931    80.000    14.527    14.527    13.183
 TOTAL     85.708    86.300    62.206    20.489    22.476    80.812
 VIB. THERMAL CORRECTION E(T)-E(0) = H(T)-H(0) =      2170.687 CAL/MOL
 ......END OF NORMAL COORDINATE ANALYSIS......
 STEP CPU TIME =     0.00 TOTAL CPU TIME =         37.8 (      0.6 MIN)
 TOTAL WALL CLOCK TIME=         38.5 SECONDS, CPU UTILIZATION IS    98.39%
               580000  WORDS OF DYNAMIC MEMORY USED
 EXECUTION OF GAMESS TERMINATED NORMALLY Wed Dec 22 13:14:12 2021
 DDI: 263640 bytes (0.3 MB / 0 MWords) used by master data server.

 ----------------------------------------
 CPU timing information for all processes
 ========================================
 0: 36.848 + 1.09 = 37.858
 ----------------------------------------
 ddikick.x: exited gracefully.
----- accounting info -----
Files used on the master node chemcompute-node-0.novalocal were:
-rw-r--r--. 1 chemcomp chemcomp     1014 Dec 22 13:13 /scratch/331045/369034.F05
-rw-rw-r--. 1 chemcomp chemcomp  2700240 Dec 22 13:13 /scratch/331045/369034.F08
-rw-rw-r--. 1 chemcomp chemcomp 90112000 Dec 22 13:14 /scratch/331045/369034.F10
-rw-rw-r--. 1 chemcomp chemcomp   439296 Dec 22 13:14 /scratch/331045/369034.F18
Wed Dec 22 13:14:15 UTC 2021
0.164u 0.091s 0:42.02 0.5%	0+0k 8+216io 0pf+0w
Finishing Up...
Looking for IR data...
Exception parsing IR in output file
could not convert string to float: 'PROPERTY'
Looking for Raman data...
Exception parsing Raman in output file
could not convert string to float: 'PROPERTY'
Looking for thermodynamics data...
Looking for UV-Vis data...
Exception parsing uvvis in output file
could not convert string to float: 'PROPERTY'
331045
