----- GAMESS execution script 'rungms' -----
This job is running on host chemcompute-node-5.novalocal
under operating system Linux at Wed Dec 22 13:22:44 UTC 2021
SLURM has assigned the following compute nodes to this run:
chemcompute-node-5
Available scratch disk space (Kbyte units) at beginning of the job is
Filesystem     1K-blocks    Used Available Use% Mounted on
/dev/sda1      125817836 9230960 116586876   8% /
GAMESS temporary binary files will be written to /scratch/331051
GAMESS supplementary output files will be written to /data/slurm/369040
Copying input file 369040.inp to your run's scratch directory...
The generated host list is
chemcompute-node-5.novalocal

 Distributed Data Interface kickoff program.
 Initiating 1 compute processes on 1 nodes to run the following command:
 /data/gamess-2019R1-ddi/gamess.00.x 369040 

          ******************************************************
          *         GAMESS VERSION = 30 JUN 2019 (R1)          *
          *             FROM IOWA STATE UNIVERSITY             *
          * M.W.SCHMIDT, K.K.BALDRIDGE, J.A.BOATZ, S.T.ELBERT, *
          *   M.S.GORDON, J.H.JENSEN, S.KOSEKI, N.MATSUNAGA,   *
          *          K.A.NGUYEN, S.J.SU, T.L.WINDUS,           *
          *       TOGETHER WITH M.DUPUIS, J.A.MONTGOMERY       *
          *         J.COMPUT.CHEM.  14, 1347-1363(1993)        *
          **************** 64 BIT LINUX VERSION ****************

  SINCE 1993, STUDENTS AND POSTDOCS WORKING AT IOWA STATE UNIVERSITY
  AND ALSO IN THEIR VARIOUS JOBS AFTER LEAVING ISU HAVE MADE IMPORTANT
  CONTRIBUTIONS TO THE CODE:
     IVANA ADAMOVIC, CHRISTINE AIKENS, YURI ALEXEEV, POOJA ARORA,
     ANDREY ASADCHEV, ROB BELL, PRADIPTA BANDYOPADHYAY, JONATHAN BENTZ,
     COLLEEN BERTONI, BRETT BODE, KURT BRORSEN, CALEB CARLIN, GALINA CHABAN,
     WEI CHEN, CHEOL HO CHOI, PAUL DAY, ALBERT DEFUSCO, NUWAN DESILVA,
     TIM DUDLEY, DMITRI FEDOROV, ALEX FINDLATER, GRAHAM FLETCHER, 
     MARK FREITAG, KURT GLAESEMANN, ANASTASIA GUNINA,
     DAN KEMP, GRANT MERRILL, NORIYUKI MINEZAWA, JONATHAN MULLIN,
     TAKESHI NAGATA, SEAN NEDD, HEATHER NETZLOFF, BOSILJKA NJEGIC, RYAN OLSON,
     MIKE PAK, BUU PHAM,
     SPENCER PRUITT, LUKE ROSKOP, JIM SHOEMAKER, LYUDMILA SLIPCHENKO,
     TONY SMITH, SAROM SOK LEANG, JIE SONG, TETSUYA TAKETSUGU, SIMON WEBB,
     PENG XU, SOOHAENG YOO, FEDERICO ZAHARIEV

  ADDITIONAL CODE HAS BEEN PROVIDED BY COLLABORATORS IN OTHER GROUPS:
     IOWA STATE UNIVERSITY:
          JOE IVANIC, AARON WEST, LAIMUTIS BYTAUTAS, KLAUS RUEDENBERG
     UNIVERSITY OF TOKYO: KIMIHIKO HIRAO, TAKAHITO NAKAJIMA,
          TAKAO TSUNEDA, MUNEAKI KAMIYA, SUSUMU YANAGISAWA,
          KIYOSHI YAGI, MAHITO CHIBA, SEIKEN TOKURA, NAOAKI KAWAKAMI
     UNIVERSITY OF AARHUS: FRANK JENSEN
     UNIVERSITY OF IOWA: VISVALDAS KAIRYS, HUI LI
     NATIONAL INST. OF STANDARDS AND TECHNOLOGY: WALT STEVENS, DAVID GARMER
     UNIVERSITY OF PISA: BENEDETTA MENNUCCI, JACOPO TOMASI
     UNIVERSITY OF MEMPHIS: HENRY KURTZ, PRAKASHAN KORAMBATH
     UNIVERSITY OF ALBERTA: TOBY ZENG, MARIUSZ KLOBUKOWSKI
     UNIVERSITY OF NEW ENGLAND: MARK SPACKMAN
     MIE UNIVERSITY: HIROAKI UMEDA
     NAT. INST. OF ADVANCED INDUSTRIAL SCIENCE AND TECHNOLOGY: KAZUO KITAURA
     MICHIGAN STATE UNIVERSITY:
          KAROL KOWALSKI, MARTA WLOCH, JEFFREY GOUR, JESSE LUTZ,
          WEI LI, JUN SHEN, J. EMILIANO DEUSTUA, PIOTR PIECUCH
     UNIVERSITY OF MINNESOTA:
          YINAN SHU
     UNIVERSITY OF SILESIA: MONIKA MUSIAL, STANISLAW KUCHARSKI
     FACULTES UNIVERSITAIRES NOTRE-DAME DE LA PAIX:
          OLIVIER QUINET, BENOIT CHAMPAGNE
     UNIVERSITY OF CALIFORNIA - SANTA BARBARA: BERNARD KIRTMAN
     INSTITUTE FOR MOLECULAR SCIENCE:
          KAZUYA ISHIMURA, MICHIO KATOUDA, AND SHIGERU NAGASE
     UNIVERSITY OF NOTRE DAME: ANNA POMOGAEVA, DAN CHIPMAN
     KYUSHU UNIVERSITY:
          HARUYUKI NAKANO,
          FENG LONG GU, JACEK KORCHOWIEC, MARCIN MAKOWSKI, AND YURIKO AOKI,
          HIROTOSHI MORI AND EISAKU MIYOSHI
     PENNSYLVANIA STATE UNIVERSITY:
          TZVETELIN IORDANOV, CHET SWALINA, JONATHAN SKONE,
          SHARON HAMMES-SCHIFFER
     WASEDA UNIVERSITY:
          MASATO KOBAYASHI, TOMOKO AKAMA, TSUGUKI TOUMA,
          TAKESHI YOSHIKAWA, YASUHIRO IKABATA, JUNJI SEINO,
          YUYA NAKAJIMA, HIROMI NAKAI
     NANJING UNIVERSITY: SHUHUA LI
     UNIVERSITY OF NEBRASKA:
          PEIFENG SU, DEJUN SI, NANDUN THELLAMUREGE, YALI WANG, HUI LI
     UNIVERSITY OF ZURICH: ROBERTO PEVERATI, KIM BALDRIDGE
     N. COPERNICUS UNIVERSITY AND JACKSON STATE UNIVERSITY:
          MARIA BARYSZ
     UNIVERSITY OF COPENHAGEN: Jimmy Kromann, CASPER STEINMANN
     TOKYO INSTITUTE OF TECHNOLOGY: HIROYA NAKATA
     NAGOYA UNIVERSITY: YOSHIO NISHIMOTO, STEPHAN IRLE
     MOSCOW STATE UNIVERSITY: VLADIMIR MIRONOV
     A.N.NESMEYANOV INSTITUTE OF ORGANOELEMENT COMPOUNDS OF RUSSIAN ACADEMY OF SCIENCES:
          IGOR S. GERASIMOV

 EXECUTION OF GAMESS BEGUN Wed Dec 22 13:22:44 2021

            ECHO OF THE FIRST FEW INPUT CARDS -
 INPUT CARD>!   File created by the GAMESS Input Deck Generator Plugin for Avogadro         
 INPUT CARD> $BASIS GBASIS=STO NGAUSS=3 $END                                                
 INPUT CARD> $CONTRL SCFTYP=UHF RUNTYP=SADPOINT ICHARG=1 MULT=2 $END                        
 INPUT CARD> $STATPT hssend=.t. OPTTOL=0.0001 NSTEP=20 $END                                 
 INPUT CARD> $STATPT HESS=calc ihrep=5 $END                                                 
 INPUT CARD> $FORCE nvib=2 $END                                                             
 INPUT CARD> $ZMAT DLC=.t. auto=.t. nonvdw(1)=2,4,2,13 $END                                 
 INPUT CARD> !$ZMAT IFZMAT(1)=1,2,4,1,2,13 fvalue(1)=2.00,2.00 $END                         
 INPUT CARD>                                                                                
 INPUT CARD> $DATA                                                                          
 INPUT CARD>Title                                                                           
 INPUT CARD>C1                                                                              
 INPUT CARD>C     6.0     0.03057932     0.89020073     1.46939850                          
 INPUT CARD>N     7.0     1.11161220     0.52868617     0.44994599                          
 INPUT CARD>C     6.0     2.33096766    -0.10426716     1.12809253                          
 INPUT CARD>C     6.0     1.50302279     1.73628199    -0.37810528                          
 INPUT CARD>Cl    17.0     2.51426291     1.39707065    -1.75077057                         
 INPUT CARD>H     1.0    -0.22356987    -0.01258796     2.02524924                          
 INPUT CARD>H     1.0    -0.83856189     1.26563358     0.92866570                          
 INPUT CARD>H     1.0     0.43329853     1.65333772     2.13545418                          
 INPUT CARD>H     1.0     1.99436748    -0.99551940     1.65771985                          
 INPUT CARD>H     1.0     2.74873304     0.62569964     1.82126927                          
 INPUT CARD>H     1.0     3.05465770    -0.36318660     0.35489786                          
 INPUT CARD>H     1.0     0.71901369     2.49343729    -0.46370369                          
 INPUT CARD>H     1.0     0.70859629    -0.19125670    -0.19300383                          
 INPUT CARD> $END                                                                           
    1000000 WORDS OF MEMORY AVAILABLE

     BASIS OPTIONS
     -------------
     GBASIS=STO          IGAUSS=       3      POLAR=NONE    
     NDFUNC=       0     NFFUNC=       0     DIFFSP=       F
     NPFUNC=       0      DIFFS=       F     BASNAM=        


     RUN TITLE
     ---------
 Title                                                                           

 THE POINT GROUP OF THE MOLECULE IS C1      
 THE ORDER OF THE PRINCIPAL AXIS IS     0

 ATOM      ATOMIC                      COORDINATES (BOHR)
           CHARGE         X                   Y                   Z
 C           6.0     0.0577865357        1.6822354538        2.7767605318
 N           7.0     2.1006424626        0.9990719948        0.8502746304
 C           6.0     4.4048901636       -0.1970363619        2.1317857705
 C           6.0     2.8403012264        3.2810971985       -0.7145153737
 CL         17.0     4.7512679610        2.6400807140       -3.3084766447
 H           1.0    -0.4224857934       -0.0237877951        3.8271661204
 H           1.0    -1.5846521958        2.3917006671        1.7549237072
 H           1.0     0.8188154926        3.1243552560        4.0354232595
 H           1.0     3.7688080560       -1.8812588815        3.1326362809
 H           1.0     5.1943522590        1.1824008702        3.4416998702
 H           1.0     5.7724660393       -0.6863231564        0.6706597090
 H           1.0     1.3587388555        4.7119132457       -0.8762729136
 H           1.0     1.3390528240       -0.3614227563       -0.3647243533

          INTERNUCLEAR DISTANCES (ANGS.)
          ------------------------------

                1 C          2 N          3 C          4 C          5 CL    

   1 C       0.0000000    1.5292509 *  2.5292771 *  2.5094249 *  4.0981813  
   2 N       1.5292509 *  0.0000000    1.5321033 *  1.5156381 *  2.7503952 *
   3 C       2.5292771 *  1.5321033 *  0.0000000    2.5182823 *  3.2519940  
   4 C       2.5094249 *  1.5156381 *  2.5182823 *  0.0000000    1.7383558 *
   5 CL      4.0981813    2.7503952 *  3.2519940    1.7383558 *  0.0000000  
   6 H       1.0902244 *  2.1347761 *  2.7090510 *  3.4374091    4.8724933  
   7 H       1.0902973 *  2.1390285 *  3.4586582    2.7225318 *  4.2939595  
   8 H       1.0900417 *  2.1367940 *  2.7758063 *  2.7329784 *  4.4157478  
   9 H       2.7290785 *  2.1356913 *  1.0900162 *  3.4422002    4.1967351  
  10 H       2.7535674 *  2.1377801 *  1.0898961 *  2.7608759 *  3.6618927  
  11 H       3.4580546    2.1400694 *  1.0902278 *  2.7115739 *  2.7972078 *
  12 H       2.6040725 *  2.2020755 *  3.4467781    1.0932893 *  2.4660658 *
  13 H       2.0959100 *  1.0460038 *  2.0940276 *  2.0930316 *  2.8652841 *

                6 H          7 H          8 H          9 H         10 H     

   1 C       1.0902244 *  1.0902973 *  1.0900417 *  2.7290785 *  2.7535674 *
   2 N       2.1347761 *  2.1390285 *  2.1367940 *  2.1356913 *  2.1377801 *
   3 C       2.7090510 *  3.4586582    2.7758063 *  1.0900162 *  1.0898961 *
   4 C       3.4374091    2.7225318 *  2.7329784 *  3.4422002    2.7608759 *
   5 CL      4.8724933    4.2939595    4.4157478    4.1967351    3.6618927  
   6 H       0.0000000    1.7929197 *  1.7941376 *  2.4536663 *  3.0469006  
   7 H       1.7929197 *  0.0000000    1.7956285 *  3.6972722    3.7516585  
   8 H       1.7941376 *  1.7956285 *  0.0000000    3.1115286    2.5526436 *
   9 H       2.4536663 *  3.6972722    3.1115286    0.0000000    1.7955966 *
  10 H       3.0469006    3.7516585    2.5526436 *  1.7955966 *  0.0000000  
  11 H       3.6959125    4.2590402    3.7560984    1.7948274 *  1.7949181 *
  12 H       3.6556139    2.4232697 *  2.7464563 *  4.2778247    3.5818021  
  13 H       2.4127791 *  2.4029919 *  2.9832925 *  2.3927441 *  2.9810857 *

               11 H         12 H         13 H     

   1 C       3.4580546    2.6040725 *  2.0959100 *
   2 N       2.1400694 *  2.2020755 *  1.0460038 *
   3 C       1.0902278 *  3.4467781    2.0940276 *
   4 C       2.7115739 *  1.0932893 *  2.0930316 *
   5 CL      2.7972078 *  2.4660658 *  2.8652841 *
   6 H       3.6959125    3.6556139    2.4127791 *
   7 H       4.2590402    2.4232697 *  2.4029919 *
   8 H       3.7560984    2.7464563 *  2.9832925 *
   9 H       1.7948274 *  4.2778247    2.3927441 *
  10 H       1.7949181 *  3.5818021    2.9810857 *
  11 H       0.0000000    3.7796351    2.4153178 *
  12 H       3.7796351    0.0000000    2.6983270 *
  13 H       2.4153178 *  2.6983270 *  0.0000000  

  * ... LESS THAN  3.000


     ATOMIC BASIS SET
     ----------------
 THE CONTRACTED PRIMITIVE FUNCTIONS HAVE BEEN UNNORMALIZED
 THE CONTRACTED BASIS FUNCTIONS ARE NOW NORMALIZED TO UNITY

  SHELL TYPE  PRIMITIVE        EXPONENT          CONTRACTION COEFFICIENT(S)

 C         

      1   S       1            71.6168373    0.154328967295
      1   S       2            13.0450963    0.535328142282
      1   S       3             3.5305122    0.444634542185

      2   L       4             2.9412494   -0.099967229187    0.155916274999
      2   L       5             0.6834831    0.399512826089    0.607683718598
      2   L       6             0.2222899    0.700115468880    0.391957393099

 N         

      3   S       7            99.1061690    0.154328967295
      3   S       8            18.0523124    0.535328142282
      3   S       9             4.8856602    0.444634542185

      4   L      10             3.7804559   -0.099967229187    0.155916274999
      4   L      11             0.8784966    0.399512826089    0.607683718598
      4   L      12             0.2857144    0.700115468880    0.391957393099

 C         

      5   S      13            71.6168373    0.154328967295
      5   S      14            13.0450963    0.535328142282
      5   S      15             3.5305122    0.444634542185

      6   L      16             2.9412494   -0.099967229187    0.155916274999
      6   L      17             0.6834831    0.399512826089    0.607683718598
      6   L      18             0.2222899    0.700115468880    0.391957393099

 C         

      7   S      19            71.6168373    0.154328967295
      7   S      20            13.0450963    0.535328142282
      7   S      21             3.5305122    0.444634542185

      8   L      22             2.9412494   -0.099967229187    0.155916274999
      8   L      23             0.6834831    0.399512826089    0.607683718598
      8   L      24             0.2222899    0.700115468880    0.391957393099

 CL        

      9   S      25           601.3456136    0.154328967295
      9   S      26           109.5358542    0.535328142282
      9   S      27            29.6446769    0.444634542185

     10   L      28            38.9604189   -0.099967229187    0.155916274999
     10   L      29             9.0535635    0.399512826089    0.607683718598
     10   L      30             2.9444998    0.700115468880    0.391957393099

     11   L      31             2.2112785   -0.219620369005    0.010587604289
     11   L      32             0.6169411    0.225595433605    0.595167005266
     11   L      33             0.2414666    0.900398426019    0.462001011973

 H         

     12   S      34             3.4252509    0.154328967295
     12   S      35             0.6239137    0.535328142282
     12   S      36             0.1688554    0.444634542185

 H         

     13   S      37             3.4252509    0.154328967295
     13   S      38             0.6239137    0.535328142282
     13   S      39             0.1688554    0.444634542185

 H         

     14   S      40             3.4252509    0.154328967295
     14   S      41             0.6239137    0.535328142282
     14   S      42             0.1688554    0.444634542185

 H         

     15   S      43             3.4252509    0.154328967295
     15   S      44             0.6239137    0.535328142282
     15   S      45             0.1688554    0.444634542185

 H         

     16   S      46             3.4252509    0.154328967295
     16   S      47             0.6239137    0.535328142282
     16   S      48             0.1688554    0.444634542185

 H         

     17   S      49             3.4252509    0.154328967295
     17   S      50             0.6239137    0.535328142282
     17   S      51             0.1688554    0.444634542185

 H         

     18   S      52             3.4252509    0.154328967295
     18   S      53             0.6239137    0.535328142282
     18   S      54             0.1688554    0.444634542185

 H         

     19   S      55             3.4252509    0.154328967295
     19   S      56             0.6239137    0.535328142282
     19   S      57             0.1688554    0.444634542185

 TOTAL NUMBER OF BASIS SET SHELLS             =   19
 NUMBER OF CARTESIAN GAUSSIAN BASIS FUNCTIONS =   37
 NUMBER OF ELECTRONS                          =   49
 CHARGE OF MOLECULE                           =    1
 SPIN MULTIPLICITY                            =    2
 NUMBER OF OCCUPIED ORBITALS (ALPHA)          =   25
 NUMBER OF OCCUPIED ORBITALS (BETA )          =   24
 TOTAL NUMBER OF ATOMS                        =   13
 THE NUCLEAR REPULSION ENERGY IS      231.9694188064

     $CONTRL OPTIONS
     ---------------
 SCFTYP=UHF          RUNTYP=SADPOINT     EXETYP=RUN     
 MPLEVL=       0     CITYP =NONE         CCTYP =NONE         VBTYP =NONE    
 DFTTYP=NONE         TDDFT =NONE    
 MULT  =       2     ICHARG=       1     NZVAR =       0     COORD =UNIQUE  
 PP    =NONE         RELWFN=NONE         LOCAL =NONE         NUMGRD=       F
 ISPHER=      -1     NOSYM =       0     MAXIT =      30     UNITS =ANGS    
 PLTORB=       F     MOLPLT=       F     AIMPAC=       F     FRIEND=        
 NPRINT=       7     IREST =       0     GEOM  =INPUT   
 NORMF =       0     NORMP =       0     ITOL  =      20     ICUT  =       9
 INTTYP=BEST         GRDTYP=BEST         QMTTOL= 1.0E-06

     $SYSTEM OPTIONS
     ---------------
  REPLICATED MEMORY=     1000000 WORDS (ON EVERY NODE).
 DISTRIBUTED MEMDDI=           0 MILLION WORDS IN AGGREGATE,
 MEMDDI DISTRIBUTED OVER   1 PROCESSORS IS           0 WORDS/PROCESSOR.
 TOTAL MEMORY REQUESTED ON EACH PROCESSOR=     1000000 WORDS.
 TIMLIM=      525600.00 MINUTES, OR     365.0 DAYS.
 PARALL= F  BALTYP=  DLB     KDIAG=    0  COREFL= F
 MXSEQ2=     300 MXSEQ3=     150  mem10=         0

          ----------------
          PROPERTIES INPUT
          ----------------

     MOMENTS            FIELD           POTENTIAL          DENSITY
 IEMOM =       1   IEFLD =       0   IEPOT =       0   IEDEN =       0
 WHERE =COMASS     WHERE =NUCLEI     WHERE =NUCLEI     WHERE =NUCLEI  
 OUTPUT=BOTH       OUTPUT=BOTH       OUTPUT=BOTH       OUTPUT=BOTH    
 IEMINT=       0   IEFINT=       0                     IEDINT=       0
                                                       MORB  =       0
          EXTRAPOLATION IN EFFECT
          SOSCF IN EFFECT
          DIIS or SOSCF will be reset if energy rises
 ORBITAL PRINTING OPTION: NPREO=     1    37     2     1

     -------------------------------
     INTEGRAL TRANSFORMATION OPTIONS
     -------------------------------
     NWORD  =            0
     CUTOFF = 1.0E-09     MPTRAN =       0
     DIRTRF =       F     AOINTS =DUP     

          ----------------------
          INTEGRAL INPUT OPTIONS
          ----------------------
 NOPK  =       1 NORDER=       0 SCHWRZ=       T

     ------------------------------------------
     THE POINT GROUP IS C1 , NAXIS= 0, ORDER= 1
     ------------------------------------------

     DIMENSIONS OF THE SYMMETRY SUBSPACES ARE
 A   =   37

 ..... DONE SETTING UP THE RUN .....
 STEP CPU TIME =     0.09 TOTAL CPU TIME =          0.1 (      0.0 MIN)
 TOTAL WALL CLOCK TIME=          0.1 SECONDS, CPU UTILIZATION IS    90.00%


          -----------------------------
          STATIONARY POINT LOCATION RUN
          -----------------------------

 OBTAINING INITIAL HESSIAN, HESS=CALC    

     ---------------------------------
     HESSIAN MATRIX CONTROL PARAMETERS
     ---------------------------------
     METHOD=ANALYTIC   NVIB  =       2   VIBSIZ= 0.01000
     RDHESS=       F   PURIFY=       F   PRTIFC=       F
     VIBANL=       F   DECOMP=       F   PROJCT=       F
     SCLFAC= 1.00000   PRTSCN=       F   NPRT  =       0
     PULCOR=       F   NPUN  =       0   REDOVB=       T
     HSSTYP=GENERAL 
 Old integral subroutine is used

     ------------------------------
     CPHF RESPONSE SOLUTION OPTIONS
     ------------------------------
     POLAR  =       F     NWORD  =       0
     CPHF   =AO      

          ********************
          1 ELECTRON INTEGRALS
          ********************
 ...... END OF ONE-ELECTRON INTEGRALS ......
 STEP CPU TIME =     0.01 TOTAL CPU TIME =          0.1 (      0.0 MIN)
 TOTAL WALL CLOCK TIME=          0.1 SECONDS, CPU UTILIZATION IS    76.92%

          -------------
          GUESS OPTIONS
          -------------
          GUESS =HUCKEL            NORB  =       0          NORDER=       0
          MIX   =       F          PRTMO =       F          PUNMO =       F
          TOLZ  = 1.0E-08          TOLE  = 1.0E-05
          SYMDEN=       F          PURIFY=       F

 INITIAL GUESS ORBITALS GENERATED BY HUCKEL   ROUTINE.
 HUCKEL GUESS REQUIRES     24250 WORDS.

 SYMMETRIES FOR INITIAL GUESS ORBITALS FOLLOW.  ALPHA SET(S).
    25 ORBITALS ARE OCCUPIED (    9 CORE ORBITALS).
    10=A       11=A       12=A       13=A       14=A       15=A       16=A   
    17=A       18=A       19=A       20=A       21=A       22=A       23=A   
    24=A       25=A       26=A       27=A       28=A       29=A       30=A   
    31=A       32=A       33=A       34=A       35=A   

 SYMMETRIES FOR INITIAL GUESS ORBITALS FOLLOW.   BETA SET(S).
    24 ORBITALS ARE OCCUPIED (    9 CORE ORBITALS).
    10=A       11=A       12=A       13=A       14=A       15=A       16=A   
    17=A       18=A       19=A       20=A       21=A       22=A       23=A   
    24=A       25=A       26=A       27=A       28=A       29=A       30=A   
    31=A       32=A       33=A       34=A   
 ...... END OF INITIAL ORBITAL SELECTION ......
 STEP CPU TIME =     0.03 TOTAL CPU TIME =          0.1 (      0.0 MIN)
 TOTAL WALL CLOCK TIME=          0.2 SECONDS, CPU UTILIZATION IS    81.25%

                    ----------------------
                    AO INTEGRAL TECHNOLOGY
                    ----------------------
     S,P,L SHELL ROTATED AXIS INTEGRALS, REPROGRAMMED BY
        KAZUYA ISHIMURA (IMS) AND JOSE SIERRA (SYNSTAR).
     S,P,D,L SHELL ROTATED AXIS INTEGRALS PROGRAMMED BY
        KAZUYA ISHIMURA (INSTITUTE FOR MOLECULAR SCIENCE).
     S,P,D,F,G SHELL TO TOTAL QUARTET ANGULAR MOMENTUM SUM 5,
        ERIC PROGRAM BY GRAHAM FLETCHER (ELORET AND NASA ADVANCED
        SUPERCOMPUTING DIVISION, AMES RESEARCH CENTER).
     S,P,D,F,G,L SHELL GENERAL RYS QUADRATURE PROGRAMMED BY
        MICHEL DUPUIS (PACIFIC NORTHWEST NATIONAL LABORATORY).

          --------------------
          2 ELECTRON INTEGRALS
          --------------------

 THE -PK- OPTION IS OFF, THE INTEGRALS ARE NOT IN SUPERMATRIX FORM.
 STORING   15000 INTEGRALS/RECORD ON DISK, USING 12 BYTES/INTEGRAL.
 TWO ELECTRON INTEGRAL EVALUATION REQUIRES   89546 WORDS OF MEMORY.
 SCHWARZ INEQUALITY OVERHEAD:       685 INTEGRALS, T=        0.00
 II,JST,KST,LST =  1  1  1  1 NREC =         1 INTLOC =    1
 II,JST,KST,LST =  2  1  1  1 NREC =         1 INTLOC =    2
 II,JST,KST,LST =  3  1  1  1 NREC =         1 INTLOC =   34
 II,JST,KST,LST =  4  1  1  1 NREC =         1 INTLOC =  133
 II,JST,KST,LST =  5  1  1  1 NREC =         1 INTLOC = 1335
 II,JST,KST,LST =  6  1  1  1 NREC =         1 INTLOC = 1880
 II,JST,KST,LST =  7  1  1  1 NREC =         1 INTLOC = 6696
 II,JST,KST,LST =  8  1  1  1 NREC =         1 INTLOC = 8334
 II,JST,KST,LST =  9  1  1  1 NREC =         2 INTLOC = 5665
 II,JST,KST,LST = 10  1  1  1 NREC =         2 INTLOC = 8688
 II,JST,KST,LST = 11  1  1  1 NREC =         3 INTLOC =12077
 II,JST,KST,LST = 12  1  1  1 NREC =         6 INTLOC = 3435
 II,JST,KST,LST = 13  1  1  1 NREC =         6 INTLOC =14293
 II,JST,KST,LST = 14  1  1  1 NREC =         7 INTLOC =12063
 II,JST,KST,LST = 15  1  1  1 NREC =         8 INTLOC =11040
 II,JST,KST,LST = 16  1  1  1 NREC =         9 INTLOC =11730
 II,JST,KST,LST = 17  1  1  1 NREC =        10 INTLOC =14453
 II,JST,KST,LST = 18  1  1  1 NREC =        12 INTLOC = 4284
 II,JST,KST,LST = 19  1  1  1 NREC =        13 INTLOC =11061
 SCHWARZ INEQUALITY TEST SKIPPED        2759 INTEGRAL BLOCKS.
 TOTAL NUMBER OF NONZERO TWO-ELECTRON INTEGRALS =              214986
         15 INTEGRAL RECORDS WERE STORED ON DISK FILE  8.
  ...... END OF TWO-ELECTRON INTEGRALS .....
 STEP CPU TIME =     0.06 TOTAL CPU TIME =          0.2 (      0.0 MIN)
 TOTAL WALL CLOCK TIME=          0.2 SECONDS, CPU UTILIZATION IS    82.61%

          ---------------------------
                  UHF SCF CALCULATION
          ---------------------------

     NUCLEAR ENERGY =       231.9694188064
     MAXIT = 30     NPUNCH=  2     MULT=  2
     EXTRAP=T  DAMP=F  SHIFT=F  RSTRCT=F  DIIS=F  SOSCF=T
     DENSITY MATRIX CONV=  1.00E-05
     SOSCF WILL OPTIMIZE     300 ALPHA AND     312 BETA ROTATION ANGLES.
     SOGTOL= 2.500E-01
     MEMORY REQUIRED FOR UHF/ROHF ITERS=     48566 WORDS.

 ITER EX      TOTAL ENERGY        E CHANGE  DENSITY CHANGE    ORB. GRAD 
   1  0     -624.4580772912  -624.4580772912   0.777225215   0.000000000
          ---------------START SECOND ORDER SCF---------------
   2  1     -624.9348563897    -0.4767790985   0.179566533   0.059467192
   3  2     -624.9749076486    -0.0400512589   0.089880722   0.029741855
   4  3     -624.9831860404    -0.0082783918   0.046766405   0.014337977
   5  4     -624.9847582678    -0.0015722274   0.010604854   0.002527922
   6  5     -624.9848949528    -0.0001366850   0.011036934   0.001323265
   7  6     -624.9849533580    -0.0000584052   0.003386789   0.000770871
   8  7     -624.9849618661    -0.0000085082   0.002134189   0.000438575
   9  8     -624.9849647818    -0.0000029156   0.000316087   0.000090169
  10  9     -624.9849649271    -0.0000001453   0.000198411   0.000033794
  11 10     -624.9849649624    -0.0000000353   0.000085661   0.000018215
  12 11     -624.9849649692    -0.0000000068   0.000052199   0.000008128
  13 12     -624.9849649709    -0.0000000017   0.000018145   0.000002569
  14 13     -624.9849649713    -0.0000000003   0.000010763   0.000001823
  15 14     -624.9849649714    -0.0000000001   0.000004203   0.000000598

          -----------------
          DENSITY CONVERGED
          -----------------
     TIME TO FORM FOCK OPERATORS=       0.1 SECONDS (       0.0 SEC/ITER)
     TIME TO SOLVE SCF EQUATIONS=       0.0 SECONDS (       0.0 SEC/ITER)

 FINAL UHF ENERGY IS     -624.9849649714 AFTER  15 ITERATIONS

          --------------------
          SPIN SZ   =    0.500
          S-SQUARED =    0.765
          --------------------

  ----- ALPHA SET ----- 

          ------------
          EIGENVECTORS
          ------------

                      1          2          3          4          5
                 -103.8681   -15.7825   -11.3669   -11.3419   -11.3377
                     A          A          A          A          A   
    1  C  1  S   -0.000001   0.000450  -0.002344   0.992024   0.014579
    2  C  1  S    0.000004  -0.004403  -0.000184   0.036425   0.000385
    3  C  1  X    0.000003  -0.002607  -0.000176   0.000136  -0.000338
    4  C  1  Y    0.000006   0.000878  -0.000250  -0.000053   0.000141
    5  C  1  Z   -0.000005   0.002462   0.000283  -0.000124  -0.000117
    6  N  2  S    0.000002   0.993364   0.000499   0.000501   0.000516
    7  N  2  S   -0.000025   0.031393  -0.004694  -0.004586  -0.004696
    8  N  2  X   -0.000004  -0.000288  -0.000907   0.002656  -0.002920
    9  N  2  Y    0.000004  -0.000409  -0.003002  -0.000919   0.001497
   10  N  2  Z    0.000015  -0.000554   0.002101  -0.002464  -0.001698
   11  C  3  S    0.000002   0.000449  -0.002275  -0.014457   0.992024
   12  C  3  S   -0.000021  -0.004370  -0.000220  -0.000681   0.036423
   13  C  3  X   -0.000013   0.002926   0.000011   0.000304  -0.000164
   14  C  3  Y    0.000007  -0.001515  -0.000435  -0.000123   0.000076
   15  C  3  Z    0.000005   0.001623   0.000311  -0.000209  -0.000077
   16  C  4  S   -0.000055   0.000431   0.992286   0.002432   0.002457
   17  C  4  S    0.000391  -0.004328   0.033295  -0.000042  -0.000122
   18  C  4  X    0.000216   0.001023  -0.001695   0.000224  -0.000279
   19  C  4  Y   -0.000079   0.003082  -0.001118   0.000012   0.000222
   20  C  4  Z   -0.000289  -0.002086  -0.000927  -0.000293  -0.000178
   21  CL 5  S    0.994494   0.000003   0.000127   0.000003  -0.000002
   22  CL 5  S    0.015776  -0.000004  -0.000450  -0.000010   0.000008
   23  CL 5  X   -0.000075   0.000013  -0.000291  -0.000004  -0.000002
   24  CL 5  Y    0.000021   0.000022   0.000077   0.000002   0.000005
   25  CL 5  Z    0.000103  -0.000015   0.000371   0.000008  -0.000004
   26  CL 5  S   -0.001875   0.000174  -0.004629  -0.000088   0.000086
   27  CL 5  X    0.000146  -0.000111   0.002653   0.000042   0.000014
   28  CL 5  Y   -0.000047  -0.000155  -0.000756  -0.000013  -0.000042
   29  CL 5  Z   -0.000200   0.000148  -0.003446  -0.000074   0.000044
   30  H  6  S    0.000002   0.000298  -0.000114  -0.006794  -0.000101
   31  H  7  S   -0.000001   0.000298   0.000015  -0.006790  -0.000229
   32  H  8  S    0.000001   0.000241  -0.000136  -0.006793  -0.000080
   33  H  9  S    0.000002   0.000300  -0.000141   0.000120  -0.006801
   34  H 10  S    0.000001   0.000243  -0.000171   0.000099  -0.006798
   35  H 11  S    0.000049   0.000290  -0.000087  -0.000032  -0.006796
   36  H 12  S    0.000005   0.000225  -0.006985  -0.000136  -0.000119
   37  H 13  S    0.000023  -0.006014  -0.000583  -0.000352  -0.000372

                      6          7          8          9         10
                  -10.5574    -7.9986    -7.9953    -7.9941    -1.5142
                     A          A          A          A          A   
    1  C  1  S    0.000031   0.000024  -0.000005  -0.000007  -0.062374
    2  C  1  S   -0.000099  -0.000102   0.000050   0.000092   0.150647
    3  C  1  X   -0.000065  -0.000074   0.000035   0.000048   0.044634
    4  C  1  Y   -0.000095  -0.000115   0.000018  -0.000008  -0.014020
    5  C  1  Z    0.000084   0.000103  -0.000018  -0.000030  -0.042176
    6  N  2  S   -0.000030  -0.000018   0.000034   0.000048  -0.205999
    7  N  2  S    0.000486   0.000415  -0.000476  -0.000739   0.701275
    8  N  2  X   -0.000004   0.000150   0.000269   0.000112  -0.002236
    9  N  2  Y   -0.000048   0.000022  -0.000039  -0.000411  -0.000039
   10  N  2  Z   -0.000191  -0.000192   0.000254  -0.000049  -0.013395
   11  C  3  S   -0.000049  -0.000003  -0.000003   0.000028  -0.061742
   12  C  3  S    0.000407   0.000147   0.000053  -0.000477   0.149124
   13  C  3  X    0.000234   0.000098   0.000057  -0.000276  -0.049408
   14  C  3  Y   -0.000160  -0.000086  -0.000075   0.000269   0.026648
   15  C  3  Z   -0.000063   0.000051  -0.000017   0.000038  -0.028049
   16  C  4  S    0.001780   0.001312  -0.000384   0.000048  -0.078667
   17  C  4  S   -0.008078  -0.010789   0.003095  -0.000422   0.206029
   18  C  4  X   -0.004119  -0.005894  -0.001045   0.000658  -0.013826
   19  C  4  Y    0.001469   0.001611  -0.001804  -0.003036  -0.061753
   20  C  4  Z    0.005512   0.006655  -0.003282   0.001681   0.033563
   21  CL 5  S   -0.376814   0.004961  -0.001441  -0.000192   0.008261
   22  CL 5  S    1.052733  -0.014107   0.004099   0.000544  -0.028095
   23  CL 5  X   -0.006710  -0.346790   0.888868  -0.259773   0.006597
   24  CL 5  Y    0.001350   0.265786   0.361820   0.881689   0.000055
   25  CL 5  Z    0.009396   0.885879   0.240477  -0.366319  -0.009473
   26  CL 5  S    0.046004   0.005915  -0.001642   0.000095   0.076006
   27  CL 5  X   -0.003516  -0.018768   0.037646  -0.010783  -0.016245
   28  CL 5  Y    0.001017   0.012343   0.014413   0.036217  -0.000345
   29  CL 5  Z    0.004820   0.042428   0.008130  -0.014842   0.023531
   30  H  6  S   -0.000018  -0.000030  -0.000009  -0.000022   0.020464
   31  H  7  S    0.000014  -0.000008  -0.000041  -0.000021   0.020807
   32  H  8  S   -0.000011  -0.000016   0.000030  -0.000026   0.021138
   33  H  9  S   -0.000041  -0.000028  -0.000030   0.000067   0.020145
   34  H 10  S   -0.000023  -0.000006   0.000007   0.000002   0.020806
   35  H 11  S   -0.001022  -0.000487  -0.000252   0.001355   0.020551
   36  H 12  S   -0.000097   0.000022  -0.000211   0.000502   0.024093
   37  H 13  S   -0.000481  -0.000174   0.000582   0.000430   0.102581

                     11         12         13         14         15
                   -1.2819    -1.1762    -1.1250    -1.0566    -0.9201
                     A          A          A          A          A   
    1  C  1  S    0.050456   0.143922  -0.136545  -0.032174   0.021105
    2  C  1  S   -0.139852  -0.422694   0.412400   0.102529  -0.063890
    3  C  1  X   -0.022214   0.003149  -0.007924   0.003043   0.203358
    4  C  1  Y    0.017278  -0.009877  -0.013267   0.081592   0.047950
    5  C  1  Z    0.015206   0.032553   0.050259   0.040133   0.017746
    6  N  2  S    0.042778  -0.002427   0.056298   0.054426  -0.051885
    7  N  2  S   -0.161051   0.009997  -0.224087  -0.224077   0.235580
    8  N  2  X    0.047245   0.249916  -0.008026   0.151664   0.223454
    9  N  2  Y    0.083055  -0.136289  -0.066636   0.317660   0.251490
   10  N  2  Z   -0.096999  -0.012417   0.258206   0.088316   0.298596
   11  C  3  S    0.034276  -0.164319  -0.101081  -0.064094   0.048361
   12  C  3  S   -0.094531   0.482099   0.305202   0.201621  -0.152299
   13  C  3  X    0.029525  -0.011661   0.005512   0.068415  -0.117576
   14  C  3  Y   -0.001753   0.005199  -0.014227   0.040229   0.218425
   15  C  3  Z   -0.001764  -0.029427   0.043419   0.044898  -0.013498
   16  C  4  S   -0.136381   0.025690   0.068672  -0.136496   0.050112
   17  C  4  S    0.412596  -0.081087  -0.224608   0.473023  -0.172274
   18  C  4  X    0.058918   0.050799   0.087497  -0.056083   0.160683
   19  C  4  Y   -0.016536  -0.018527   0.057031   0.086800  -0.128780
   20  C  4  Z   -0.085929  -0.004870  -0.084000   0.121813   0.169714
   21  CL 5  S    0.065879   0.001153   0.038736  -0.036348   0.014736
   22  CL 5  S   -0.219851  -0.003728  -0.127094   0.118253  -0.047132
   23  CL 5  X    0.028808  -0.002334  -0.001397   0.007419  -0.024717
   24  CL 5  Y   -0.006046   0.002846  -0.001718  -0.009389   0.010834
   25  CL 5  Z   -0.039370  -0.001281  -0.001380  -0.012280   0.007881
   26  CL 5  S    0.683956   0.013729   0.438384  -0.427460   0.185994
   27  CL 5  X   -0.079568   0.006609   0.002069  -0.018570   0.076022
   28  CL 5  Y    0.013836  -0.008860   0.004889   0.028368  -0.033456
   29  CL 5  Z    0.109480   0.004413   0.007389   0.032131  -0.020905
   30  H  6  S   -0.032543  -0.095996   0.132060   0.007279  -0.079554
   31  H  7  S   -0.024811  -0.118683   0.100768   0.036851  -0.129270
   32  H  8  S   -0.025989  -0.101184   0.121300   0.077348   0.047742
   33  H  9  S   -0.024739   0.115298   0.099838   0.043428  -0.153837
   34  H 10  S   -0.017102   0.112809   0.093142   0.104687   0.000530
   35  H 11  S   -0.008795   0.127307   0.074576   0.058189  -0.129085
   36  H 12  S    0.070084  -0.039065  -0.058885   0.169204  -0.186363
   37  H 13  S   -0.035828   0.004405  -0.104848  -0.244551  -0.240592

                     16         17         18         19         20
                   -0.8702    -0.8365    -0.7751    -0.7637    -0.7514
                     A          A          A          A          A   
    1  C  1  S    0.043816  -0.019595  -0.001090   0.001357   0.000366
    2  C  1  S   -0.140621   0.060853   0.002362  -0.010524  -0.003448
    3  C  1  X    0.222154  -0.026534   0.189762   0.175643   0.103874
    4  C  1  Y   -0.153286  -0.165700   0.437362   0.040968   0.089685
    5  C  1  Z   -0.097855   0.323901   0.101417   0.326334   0.104604
    6  N  2  S   -0.014852   0.008535  -0.004010   0.011352  -0.000374
    7  N  2  S    0.070181  -0.038576   0.018346  -0.058749  -0.001597
    8  N  2  X   -0.224574   0.350916   0.070459  -0.076667  -0.035098
    9  N  2  Y   -0.100088  -0.302631  -0.073957   0.057821  -0.239779
   10  N  2  Z    0.370123   0.040929   0.008511  -0.289001   0.012748
   11  C  3  S    0.002378   0.032078   0.000869   0.000761  -0.000697
   12  C  3  S   -0.006769  -0.101957  -0.000875  -0.010702   0.002886
   13  C  3  X   -0.182375  -0.226521  -0.125298  -0.002005   0.225670
   14  C  3  Y   -0.051278   0.007550  -0.266191   0.024754   0.419364
   15  C  3  Z    0.203881  -0.165706  -0.169668   0.386572  -0.121653
   16  C  4  S   -0.023546  -0.054975   0.020183  -0.000120   0.021786
   17  C  4  S    0.080920   0.218403  -0.089079  -0.004503  -0.098697
   18  C  4  X   -0.121326   0.176977  -0.147553  -0.084727  -0.172110
   19  C  4  Y    0.300168   0.114679   0.071636  -0.236728   0.211569
   20  C  4  Z   -0.072443  -0.052996  -0.015927  -0.115646  -0.112538
   21  CL 5  S    0.003546  -0.017767   0.007058  -0.003800   0.004033
   22  CL 5  S   -0.011459   0.055966  -0.021937   0.011727  -0.012394
   23  CL 5  X    0.006382   0.021804  -0.006130   0.036141   0.003178
   24  CL 5  Y   -0.032695  -0.021478   0.003188   0.022431  -0.016461
   25  CL 5  Z    0.019001  -0.044925   0.035565  -0.005104   0.037837
   26  CL 5  S    0.043112  -0.236418   0.097988  -0.053720   0.057836
   27  CL 5  X   -0.021258  -0.065288   0.016584  -0.121289  -0.013475
   28  CL 5  Y    0.108964   0.068625  -0.009974  -0.077008   0.056565
   29  CL 5  Z   -0.062800   0.139661  -0.115056   0.013469  -0.124752
   30  H  6  S   -0.036789   0.251011  -0.276495   0.081190  -0.053342
   31  H  7  S   -0.178511  -0.112071  -0.035541  -0.235888  -0.081139
   32  H  8  S   -0.114292   0.080022   0.344340   0.243130   0.146426
   33  H  9  S    0.129955  -0.050732   0.124822   0.142808  -0.396857
   34  H 10  S    0.012084  -0.175451  -0.258239   0.220258   0.244286
   35  H 11  S   -0.178181  -0.072327   0.074006  -0.221766   0.106402
   36  H 12  S    0.206604   0.050362   0.089239  -0.083519   0.178845
   37  H 13  S   -0.032951   0.024849   0.022376   0.127899   0.152593

                     21         22         23         24         25
                   -0.7419    -0.7140    -0.6772    -0.5848    -0.5387
                     A          A          A          A          A   
    1  C  1  S    0.003622  -0.005871   0.009262   0.000121   0.000230
    2  C  1  S   -0.019622   0.026535  -0.040962  -0.001821  -0.000244
    3  C  1  X   -0.266420   0.198789  -0.057333  -0.025092  -0.001093
    4  C  1  Y    0.290332   0.122980  -0.008301  -0.011112  -0.006132
    5  C  1  Z   -0.156211  -0.080633   0.125463   0.032661   0.014828
    6  N  2  S    0.001469   0.008998   0.005539  -0.017844  -0.011228
    7  N  2  S   -0.008182  -0.045170  -0.035455   0.090537   0.062621
    8  N  2  X    0.215330  -0.320754  -0.016600   0.037622   0.072705
    9  N  2  Y   -0.225886  -0.089856  -0.047831   0.132464   0.069315
   10  N  2  Z   -0.013775   0.072477  -0.220134  -0.108203  -0.000507
   11  C  3  S   -0.002653   0.006606   0.008016  -0.003449  -0.007298
   12  C  3  S    0.015572  -0.031038  -0.036093   0.013894   0.032791
   13  C  3  X   -0.254639   0.163568   0.021722   0.045082  -0.057108
   14  C  3  Y    0.188404  -0.040706  -0.030108  -0.041138   0.035078
   15  C  3  Z    0.238674   0.006681   0.115291  -0.018321  -0.015858
   16  C  4  S   -0.003178  -0.034869  -0.011176   0.011170   0.034403
   17  C  4  S    0.017618   0.172611   0.054126  -0.041899  -0.179443
   18  C  4  X    0.111437   0.511744   0.164930   0.028339  -0.398479
   19  C  4  Y    0.065938   0.090402   0.280075  -0.062066  -0.225762
   20  C  4  Z   -0.061621  -0.016622   0.546894  -0.016383  -0.376283
   21  CL 5  S   -0.004363  -0.018143   0.015492   0.001363   0.000032
   22  CL 5  S    0.013305   0.055893  -0.047413  -0.004591  -0.000274
   23  CL 5  X    0.014657  -0.003713  -0.170031   0.050886  -0.176045
   24  CL 5  Y   -0.026021  -0.054440  -0.023790  -0.257216  -0.084195
   25  CL 5  Z   -0.018493  -0.133449   0.034161   0.096585  -0.140660
   26  CL 5  S   -0.063955  -0.259634   0.225802   0.014387  -0.001550
   27  CL 5  X   -0.046790   0.027503   0.580506  -0.182496   0.642792
   28  CL 5  Y    0.088413   0.184844   0.087654   0.924090   0.306146
   29  CL 5  Z    0.057966   0.442713  -0.099984  -0.347652   0.510785
   30  H  6  S   -0.218778  -0.166840   0.073483   0.036847   0.015129
   31  H  7  S    0.333716  -0.074827  -0.035301  -0.009681   0.003927
   32  H  8  S    0.012320   0.109643   0.050302  -0.002718  -0.013848
   33  H  9  S    0.024688  -0.022094   0.065748   0.020885  -0.012304
   34  H 10  S    0.151911   0.038558   0.060576  -0.019134  -0.013410
   35  H 11  S   -0.325528   0.100643  -0.064511   0.009350  -0.008774
   36  H 12  S    0.004929  -0.175113   0.051469  -0.132608   0.103314
   37  H 13  S    0.070716   0.118786   0.166545  -0.030388  -0.113763

                     26         27         28         29         30
                    0.1419     0.2353     0.2715     0.2905     0.3098
                     A          A          A          A          A   
    1  C  1  S   -0.034874   0.025453  -0.080123  -0.014538   0.031689
    2  C  1  S    0.179734  -0.123081   0.417502   0.068959  -0.180789
    3  C  1  X    0.162501  -0.274956   0.564215   0.287873  -0.014732
    4  C  1  Y   -0.105633   0.091044  -0.095648  -0.149059   0.206642
    5  C  1  Z   -0.149209   0.315333  -0.539424  -0.005683   0.213758
    6  N  2  S    0.058666  -0.178071   0.022992   0.028226   0.041824
    7  N  2  S   -0.345124   1.114393  -0.145483  -0.196788  -0.308026
    8  N  2  X   -0.055354   0.175218   0.582128   0.568422   0.160310
    9  N  2  Y   -0.314653   0.013454   0.196163  -0.403185   0.687283
   10  N  2  Z    0.052398   0.059960  -0.575304   0.478348   0.461066
   11  C  3  S   -0.007017   0.058619   0.014425   0.081257   0.006563
   12  C  3  S    0.039236  -0.296329  -0.079363  -0.433985  -0.048228
   13  C  3  X   -0.052853   0.547722   0.158014   0.509880  -0.012032
   14  C  3  Y    0.000012  -0.260776   0.046047  -0.303609   0.232676
   15  C  3  Z   -0.032353   0.311634  -0.106988   0.345891   0.090676
   16  C  4  S   -0.161647   0.025340   0.081496  -0.014592  -0.009165
   17  C  4  S    0.868474  -0.139292  -0.465788   0.056565   0.054271
   18  C  4  X    0.228287   0.278363   0.295572  -0.161498   0.099636
   19  C  4  Y   -0.371030   0.326876   0.242577  -0.453400   0.154121
   20  C  4  Z   -0.438849  -0.468047  -0.262314   0.345132  -0.349567
   21  CL 5  S   -0.021660  -0.006491  -0.001557   0.003870  -0.007009
   22  CL 5  S    0.060903   0.017349   0.004052  -0.010403   0.019495
   23  CL 5  X   -0.135992  -0.037162  -0.004765   0.018848  -0.037475
   24  CL 5  Y    0.029944   0.037059   0.014461  -0.031282   0.014720
   25  CL 5  Z    0.176001   0.043699   0.009128  -0.023711   0.038734
   26  CL 5  S   -0.390581  -0.127909  -0.031587   0.075614  -0.129743
   27  CL 5  X    0.545393   0.153181   0.020033  -0.078915   0.154971
   28  CL 5  Y   -0.120272  -0.150371  -0.060478   0.127930  -0.061292
   29  CL 5  Z   -0.707612  -0.181543  -0.038062   0.098865  -0.161943
   30  H  6  S   -0.131605  -0.051259   0.118981  -0.136361   0.155322
   31  H  7  S    0.017679   0.026334  -0.043206   0.276007   0.124553
   32  H  8  S    0.039458  -0.064910  -0.064231  -0.070321  -0.217572
   33  H  9  S   -0.048537   0.015340   0.228494  -0.045654   0.164908
   34  H 10  S    0.029583  -0.050002   0.018856   0.020411  -0.243969
   35  H 11  S   -0.004891  -0.010050  -0.195981   0.075201   0.163374
   36  H 12  S   -0.217417   0.062017   0.323602   0.198627  -0.115908
   37  H 13  S   -0.109794  -0.402531   0.067959   0.347854   1.006671

                     31         32         33         34         35
                    0.4504     0.4636     0.4749     0.4764     0.4897
                     A          A          A          A          A   
    1  C  1  S    0.067087   0.057850   0.076646   0.107250   0.047740
    2  C  1  S   -0.413296  -0.357490  -0.482535  -0.687320  -0.314968
    3  C  1  X    0.152135  -0.531540   0.331026  -0.024234  -0.112665
    4  C  1  Y   -0.347685   0.018385   0.822093  -0.528119   0.143321
    5  C  1  Z    0.285242  -0.443946  -0.016624  -0.162413  -0.591607
    6  N  2  S   -0.012665  -0.006933  -0.020196  -0.020055  -0.010906
    7  N  2  S    0.080492   0.035388   0.131165   0.116006   0.074661
    8  N  2  X   -0.291357  -0.059726  -0.149464   0.152058   0.196862
    9  N  2  Y    0.058399  -0.071837  -0.184478   0.260805  -0.191544
   10  N  2  Z   -0.111351   0.348760   0.074989   0.071018  -0.102942
   11  C  3  S    0.024907   0.041796   0.080032   0.104393   0.032812
   12  C  3  S   -0.167795  -0.261763  -0.508645  -0.665190  -0.203030
   13  C  3  X   -0.251896   0.443435  -0.174863  -0.327558  -0.168726
   14  C  3  Y    0.408667   0.331629  -0.173348  -0.461653   0.296939
   15  C  3  Z    0.236401  -0.436767  -0.190240  -0.224295   0.759043
   16  C  4  S    0.072830   0.009847   0.005492  -0.002998  -0.025679
   17  C  4  S   -0.480077  -0.076367  -0.043079   0.031434   0.173985
   18  C  4  X    0.512828   0.120145   0.148062  -0.082087  -0.188839
   19  C  4  Y   -0.421499  -0.300699  -0.210091   0.242636   0.176735
   20  C  4  Z    0.008282   0.025912   0.012721  -0.141902   0.003400
   21  CL 5  S   -0.002794  -0.000872  -0.001825  -0.000792  -0.000044
   22  CL 5  S    0.007295   0.002030   0.004875   0.002347   0.000775
   23  CL 5  X    0.002544  -0.005186  -0.003923  -0.004537   0.003356
   24  CL 5  Y   -0.010174  -0.005015  -0.003884   0.007067  -0.001921
   25  CL 5  Z    0.025327   0.009653   0.014807  -0.000538  -0.004277
   26  CL 5  S   -0.057298  -0.020965  -0.036339  -0.012988   0.006965
   27  CL 5  X   -0.007535   0.022553   0.017697   0.019004  -0.014525
   28  CL 5  Y    0.040806   0.021161   0.015786  -0.029794   0.007195
   29  CL 5  Z   -0.107871  -0.041707  -0.062994   0.002142   0.020163
   30  H  6  S   -0.208529   0.253780   0.945437  -0.039563   0.493336
   31  H  7  S    0.528188  -0.470192   0.188259   0.395223  -0.259810
   32  H  8  S    0.209586   0.610620  -0.456251   0.727984   0.426583
   33  H  9  S    0.211935   0.712752   0.084050  -0.058303  -0.088823
   34  H 10  S   -0.271107  -0.004563   0.535042   0.818614  -0.494388
   35  H 11  S    0.491967  -0.385298   0.175215   0.252779   0.785968
   36  H 12  S    0.843273   0.312368   0.218053  -0.239060  -0.321109
   37  H 13  S   -0.156960   0.079416  -0.174351   0.124093  -0.124026

                     36         37
                    0.4927     0.5110
                     A          A   
    1  C  1  S    0.052827   0.146003
    2  C  1  S   -0.344531  -0.944157
    3  C  1  X    0.453216   0.259986
    4  C  1  Y   -0.113921  -0.040610
    5  C  1  Z    0.259561  -0.138566
    6  N  2  S   -0.016697   0.001433
    7  N  2  S    0.118765  -0.009437
    8  N  2  X   -0.061104  -0.138486
    9  N  2  Y   -0.228326   0.079811
   10  N  2  Z   -0.112194   0.028968
   11  C  3  S    0.048319  -0.165836
   12  C  3  S   -0.307514   1.071155
   13  C  3  X    0.321192   0.278631
   14  C  3  Y    0.576106  -0.218858
   15  C  3  Z   -0.230315   0.040328
   16  C  4  S   -0.051486   0.000976
   17  C  4  S    0.350679  -0.007472
   18  C  4  X   -0.391238   0.060302
   19  C  4  Y    0.326730  -0.024092
   20  C  4  Z    0.047301  -0.020637
   21  CL 5  S    0.002624   0.000348
   22  CL 5  S   -0.006667  -0.001536
   23  CL 5  X    0.006161  -0.004706
   24  CL 5  Y    0.004428   0.006306
   25  CL 5  Z   -0.020266   0.000339
   26  CL 5  S    0.056311  -0.000446
   27  CL 5  X   -0.027718   0.019714
   28  CL 5  Y   -0.017829  -0.025139
   29  CL 5  Z    0.088417  -0.003492
   30  H  6  S    0.003980   0.526658
   31  H  7  S    0.676217   0.535778
   32  H  8  S   -0.067079   0.442646
   33  H  9  S    0.770972  -0.591853
   34  H 10  S   -0.205522  -0.468734
   35  H 11  S   -0.080779  -0.650765
   36  H 12  S   -0.638547   0.020614
   37  H 13  S   -0.241062   0.020418

  ----- BETA SET ----- 

          ------------
          EIGENVECTORS
          ------------

                      1          2          3          4          5
                 -103.8681   -15.7849   -11.3417   -11.3371   -11.3352
                     A          A          A          A          A   
    1  C  1  S   -0.000001   0.000453   0.992020   0.012866   0.008404
    2  C  1  S    0.000005  -0.004430   0.036401   0.000325   0.000220
    3  C  1  X    0.000003  -0.002623   0.000136  -0.000331  -0.000173
    4  C  1  Y    0.000006   0.000880  -0.000049   0.000149  -0.000221
    5  C  1  Z   -0.000005   0.002479  -0.000126  -0.000126   0.000247
    6  N  2  S    0.000002   0.993319   0.000499   0.000503   0.000458
    7  N  2  S   -0.000025   0.031593  -0.004553  -0.004548  -0.004379
    8  N  2  X   -0.000004  -0.000287   0.002659  -0.002904  -0.000837
    9  N  2  Y    0.000004  -0.000402  -0.000893   0.001582  -0.002604
   10  N  2  Z    0.000015  -0.000565  -0.002485  -0.001756   0.001826
   11  C  3  S    0.000002   0.000451  -0.013003   0.991546   0.031927
   12  C  3  S   -0.000021  -0.004397  -0.000626   0.036355   0.001044
   13  C  3  X   -0.000013   0.002940   0.000303  -0.000160   0.000012
   14  C  3  Y    0.000007  -0.001529  -0.000118   0.000084  -0.000391
   15  C  3  Z    0.000005   0.001635  -0.000212  -0.000085   0.000276
   16  C  4  S   -0.000055   0.000434  -0.007881  -0.031931   0.992619
   17  C  4  S    0.000390  -0.004318  -0.000351  -0.001139   0.029632
   18  C  4  X    0.000215   0.001052   0.000239  -0.000198  -0.001795
   19  C  4  Y   -0.000079   0.003107   0.000025   0.000267  -0.001217
   20  C  4  Z   -0.000289  -0.002070  -0.000276  -0.000118  -0.001114
   21  CL 5  S    0.994493   0.000003   0.000002  -0.000006   0.000112
   22  CL 5  S    0.015778  -0.000003  -0.000006   0.000022  -0.000401
   23  CL 5  X   -0.000075   0.000014  -0.000002   0.000007  -0.000261
   24  CL 5  Y    0.000020   0.000023   0.000001   0.000003   0.000067
   25  CL 5  Z    0.000103  -0.000014   0.000005  -0.000015   0.000328
   26  CL 5  S   -0.001876   0.000172  -0.000044   0.000228  -0.004090
   27  CL 5  X    0.000146  -0.000115   0.000016  -0.000071   0.002402
   28  CL 5  Y   -0.000046  -0.000158  -0.000006  -0.000021  -0.000650
   29  CL 5  Z   -0.000200   0.000144  -0.000041   0.000146  -0.003041
   30  H  6  S    0.000002   0.000298  -0.006788  -0.000085  -0.000174
   31  H  7  S   -0.000001   0.000300  -0.006786  -0.000217  -0.000073
   32  H  8  S    0.000001   0.000242  -0.006787  -0.000063  -0.000194
   33  H  9  S    0.000002   0.000299   0.000111  -0.006784  -0.000359
   34  H 10  S    0.000001   0.000244   0.000091  -0.006778  -0.000391
   35  H 11  S    0.000049   0.000292  -0.000041  -0.006779  -0.000313
   36  H 12  S    0.000005   0.000223  -0.000072   0.000097  -0.006211
   37  H 13  S    0.000023  -0.006057  -0.000345  -0.000347  -0.000537

                      6          7          8          9         10
                  -10.5574    -8.0020    -7.9941    -7.9926    -1.5088
                     A          A          A          A          A   
    1  C  1  S    0.000031   0.000024  -0.000007   0.000005  -0.065067
    2  C  1  S   -0.000099  -0.000110   0.000095   0.000002   0.157133
    3  C  1  X   -0.000065  -0.000080   0.000050   0.000002   0.046192
    4  C  1  Y   -0.000095  -0.000113  -0.000008  -0.000025  -0.014970
    5  C  1  Z    0.000085   0.000101  -0.000031   0.000022  -0.043598
    6  N  2  S   -0.000029  -0.000027   0.000050   0.000021  -0.212799
    7  N  2  S    0.000479   0.000530  -0.000767  -0.000237   0.734283
    8  N  2  X   -0.000010   0.000041   0.000138   0.000293  -0.004338
    9  N  2  Y   -0.000052   0.000021  -0.000410   0.000002  -0.004603
   10  N  2  Z   -0.000190  -0.000267  -0.000032   0.000173  -0.011051
   11  C  3  S   -0.000048  -0.000001   0.000027  -0.000006  -0.063684
   12  C  3  S    0.000406   0.000107  -0.000469   0.000143   0.153140
   13  C  3  X    0.000235   0.000065  -0.000269   0.000111  -0.050601
   14  C  3  Y   -0.000162  -0.000049   0.000261  -0.000125   0.026389
   15  C  3  Z   -0.000062   0.000055   0.000036  -0.000000  -0.028358
   16  C  4  S    0.001658   0.001313   0.000024   0.000090  -0.056650
   17  C  4  S   -0.007984  -0.011054  -0.000239  -0.000917   0.127557
   18  C  4  X   -0.004059  -0.005052   0.000508  -0.003132  -0.019356
   19  C  4  Y    0.001482   0.002067  -0.003140  -0.000835  -0.057940
   20  C  4  Z    0.005515   0.007374   0.001434  -0.000790   0.025702
   21  CL 5  S   -0.376813   0.005190  -0.000276   0.000365   0.006383
   22  CL 5  S    1.052726  -0.014758   0.000783  -0.001040  -0.021511
   23  CL 5  X   -0.006955  -0.646398  -0.184197   0.725336   0.005166
   24  CL 5  Y    0.001288   0.139995   0.912112   0.356897   0.000540
   25  CL 5  Z    0.009370   0.733581  -0.336415   0.570524  -0.007334
   26  CL 5  S    0.046007   0.006060   0.000002   0.000609   0.061401
   27  CL 5  X   -0.003508  -0.030992  -0.007613   0.029301  -0.013750
   28  CL 5  Y    0.001014   0.007226   0.037436   0.014817  -0.001244
   29  CL 5  Z    0.004808   0.036256  -0.013711   0.024081   0.019715
   30  H  6  S   -0.000018  -0.000026  -0.000023  -0.000018   0.021885
   31  H  7  S    0.000015   0.000007  -0.000024  -0.000039   0.021883
   32  H  8  S   -0.000012  -0.000026  -0.000024   0.000024   0.022218
   33  H  9  S   -0.000041  -0.000015   0.000064  -0.000044   0.021454
   34  H 10  S   -0.000023  -0.000008   0.000002   0.000004   0.021650
   35  H 11  S   -0.001023  -0.000334   0.001324  -0.000526   0.021473
   36  H 12  S   -0.000104   0.000098   0.000472  -0.000237   0.020808
   37  H 13  S   -0.000482  -0.000358   0.000476   0.000442   0.103235

                     11         12         13         14         15
                   -1.2542    -1.1741    -1.1186    -1.0112    -0.9087
                     A          A          A          A          A   
    1  C  1  S    0.046317   0.148433  -0.135237  -0.010027   0.025386
    2  C  1  S   -0.130144  -0.435867   0.409531   0.034553  -0.078105
    3  C  1  X   -0.016915   0.003810  -0.009435   0.016126   0.238202
    4  C  1  Y    0.013215  -0.008966  -0.006199   0.119830   0.018271
    5  C  1  Z    0.010820   0.031033   0.059713   0.020007   0.020019
    6  N  2  S    0.024388  -0.003374   0.068664   0.031303  -0.052882
    7  N  2  S   -0.089721   0.013008  -0.279800  -0.125344   0.241566
    8  N  2  X    0.049569   0.252817   0.020102   0.170861   0.198061
    9  N  2  Y    0.057921  -0.132660  -0.043492   0.426562   0.202808
   10  N  2  Z   -0.092206  -0.020204   0.281472   0.017613   0.365829
   11  C  3  S    0.020689  -0.161064  -0.120621  -0.038663   0.046223
   12  C  3  S   -0.057505   0.471463   0.364501   0.124928  -0.146481
   13  C  3  X    0.021246  -0.009465   0.014606   0.085982  -0.151167
   14  C  3  Y    0.001049   0.003806  -0.013668   0.069439   0.211898
   15  C  3  Z   -0.007771  -0.028739   0.050999   0.036067   0.011883
   16  C  4  S   -0.100601   0.020129   0.047760  -0.133212   0.058487
   17  C  4  S    0.273029  -0.057185  -0.139612   0.416876  -0.191369
   18  C  4  X    0.044915   0.032674   0.065083  -0.131393   0.097578
   19  C  4  Y   -0.033894  -0.014858   0.065295  -0.000267  -0.100029
   20  C  4  Z   -0.098387   0.003110  -0.054719   0.065088   0.091378
   21  CL 5  S    0.075520  -0.005554   0.026444  -0.028617   0.015233
   22  CL 5  S   -0.250810   0.018355  -0.086789   0.092946  -0.048850
   23  CL 5  X    0.030212  -0.003353  -0.001899   0.014281  -0.023454
   24  CL 5  Y   -0.004493   0.002809  -0.002511  -0.007255   0.008151
   25  CL 5  Z   -0.039082   0.000383  -0.000284  -0.016966   0.013971
   26  CL 5  S    0.802653  -0.060744   0.299042  -0.339945   0.190787
   27  CL 5  X   -0.088762   0.010170   0.004475  -0.041339   0.073514
   28  CL 5  Y    0.010271  -0.008661   0.007342   0.022797  -0.024828
   29  CL 5  Z    0.114529  -0.001002   0.002597   0.050287  -0.041488
   30  H  6  S   -0.031241  -0.100860   0.132815  -0.039114  -0.075204
   31  H  7  S   -0.025094  -0.122257   0.101083   0.025128  -0.162155
   32  H  8  S   -0.026393  -0.104995   0.127433   0.070281   0.038340
   33  H  9  S   -0.017858   0.113823   0.117669   0.002985  -0.136653
   34  H 10  S   -0.011757   0.111458   0.115441   0.097181   0.001270
   35  H 11  S   -0.000615   0.125662   0.090959   0.044442  -0.155269
   36  H 12  S    0.059946  -0.035148  -0.040520   0.211329  -0.188594
   37  H 13  S   -0.015014   0.005327  -0.133380  -0.242426  -0.229110

                     16         17         18         19         20
                   -0.8629    -0.8265    -0.7726    -0.7571    -0.7450
                     A          A          A          A          A   
    1  C  1  S    0.042389  -0.014987  -0.000547   0.002129  -0.000685
    2  C  1  S   -0.136564   0.045767   0.001764  -0.013749   0.003822
    3  C  1  X    0.191494   0.009297   0.170792   0.167478  -0.153375
    4  C  1  Y   -0.144784  -0.148769   0.441191   0.103497  -0.156180
    5  C  1  Z   -0.134297   0.348254   0.031250   0.299058  -0.088286
    6  N  2  S   -0.005030   0.008835  -0.003246   0.011567  -0.003898
    7  N  2  S    0.023258  -0.039215   0.014092  -0.060224   0.025182
    8  N  2  X   -0.295233   0.364467   0.027236  -0.122004   0.114183
    9  N  2  Y   -0.075884  -0.270192  -0.063172   0.033139   0.291309
   10  N  2  Z    0.320350   0.048709   0.034464  -0.332137  -0.028022
   11  C  3  S   -0.007522   0.027602   0.000220   0.001833   0.000271
   12  C  3  S    0.024840  -0.087192   0.000716  -0.015637   0.000336
   13  C  3  X   -0.137119  -0.240480  -0.134449   0.004097  -0.233085
   14  C  3  Y   -0.090203  -0.001641  -0.317346  -0.005117  -0.367039
   15  C  3  Z    0.233921  -0.141490  -0.156210   0.409996   0.112765
   16  C  4  S   -0.034980  -0.061104   0.017473  -0.002998  -0.017089
   17  C  4  S    0.111393   0.211207  -0.066860   0.017053   0.070154
   18  C  4  X   -0.137762   0.019718  -0.057116   0.041339   0.079592
   19  C  4  Y    0.258682   0.093350   0.070516  -0.151511  -0.231020
   20  C  4  Z   -0.075164  -0.110912   0.022176  -0.007043   0.073163
   21  CL 5  S    0.001209  -0.016367   0.005988  -0.002817  -0.002645
   22  CL 5  S   -0.003990   0.051762  -0.018742   0.008697   0.008182
   23  CL 5  X    0.011389   0.035731  -0.014516   0.018250   0.004898
   24  CL 5  Y   -0.032626  -0.021473   0.000215   0.015170   0.024234
   25  CL 5  Z    0.016173  -0.037847   0.026808  -0.013956  -0.027738
   26  CL 5  S    0.013402  -0.215337   0.081488  -0.039844  -0.037194
   27  CL 5  X   -0.037308  -0.114018   0.046640  -0.061526  -0.015651
   28  CL 5  Y    0.109120   0.069580  -0.000018  -0.052269  -0.083202
   29  CL 5  Z   -0.054448   0.119348  -0.087409   0.044617   0.092477
   30  H  6  S   -0.047435   0.243915  -0.306975   0.029805   0.118392
   31  H  7  S   -0.146365  -0.142362   0.002463  -0.208694   0.091616
   32  H  8  S   -0.132440   0.104008   0.307087   0.267979  -0.195011
   33  H  9  S    0.167706  -0.029048   0.167814   0.171130   0.367522
   34  H 10  S    0.032751  -0.170869  -0.282503   0.223685  -0.229846
   35  H 11  S   -0.155143  -0.086712   0.074256  -0.229732  -0.118432
   36  H 12  S    0.255035   0.150361   0.053378  -0.126618  -0.176133
   37  H 13  S   -0.016062  -0.000268   0.014407   0.173889  -0.184749

                     21         22         23         24         25
                   -0.7409    -0.6919    -0.5957    -0.5852     0.0316
                     A          A          A          A          A   
    1  C  1  S    0.003765  -0.009893   0.002755  -0.000669   0.002860
    2  C  1  S   -0.019858   0.043174  -0.012130   0.001475  -0.015669
    3  C  1  X   -0.297592   0.130762  -0.015447  -0.021610  -0.021895
    4  C  1  Y    0.255752   0.079414   0.001396  -0.009349  -0.005876
    5  C  1  Z   -0.163852  -0.148554   0.028396   0.025107  -0.020672
    6  N  2  S    0.000397   0.005734  -0.004323  -0.016790   0.014862
    7  N  2  S   -0.003033  -0.024703   0.022083   0.085923  -0.089794
    8  N  2  X    0.261643  -0.194197  -0.012590   0.036228   0.006309
    9  N  2  Y   -0.225759  -0.051533   0.012405   0.126668  -0.061385
   10  N  2  Z    0.006077   0.187354  -0.079300  -0.092570   0.079376
   11  C  3  S   -0.003146   0.002019   0.004425  -0.004293   0.025391
   12  C  3  S    0.018009  -0.007771  -0.018394   0.017318  -0.125312
   13  C  3  X   -0.269765   0.070896   0.009234   0.045370   0.113269
   14  C  3  Y    0.200342  -0.017169  -0.021571  -0.037299  -0.059477
   15  C  3  Z    0.215129  -0.045155   0.032994  -0.025802   0.038499
   16  C  4  S    0.000511  -0.028521  -0.013444   0.013188  -0.084790
   17  C  4  S   -0.002088   0.127793   0.046066  -0.042966   0.384614
   18  C  4  X    0.039826   0.319443   0.108511   0.025802   0.620177
   19  C  4  Y    0.052650  -0.085058   0.072282  -0.054426   0.363584
   20  C  4  Z   -0.063964  -0.274672   0.100017  -0.024886   0.545336
   21  CL 5  S   -0.002243  -0.023244   0.000871   0.001186  -0.003511
   22  CL 5  S    0.006798   0.071732  -0.002837  -0.004021   0.010887
   23  CL 5  X    0.016780   0.095211  -0.212801   0.099579   0.037040
   24  CL 5  Y   -0.021112  -0.037999  -0.145916  -0.230836   0.035508
   25  CL 5  Z   -0.006214  -0.158420  -0.101365   0.121603   0.067463
   26  CL 5  S   -0.033381  -0.331390   0.010156   0.012223  -0.050631
   27  CL 5  X   -0.055961  -0.315491   0.760093  -0.356977  -0.144292
   28  CL 5  Y    0.072086   0.127049   0.521638   0.829377  -0.136294
   29  CL 5  Z    0.018385   0.527809   0.361559  -0.437344  -0.258897
   30  H  6  S   -0.193254  -0.153383   0.016936   0.030854  -0.005071
   31  H  7  S    0.351292   0.000942  -0.009678  -0.007157  -0.001553
   32  H  8  S   -0.022792   0.021653   0.012742  -0.003824   0.018956
   33  H  9  S    0.011230  -0.034955   0.031120   0.013913   0.058344
   34  H 10  S    0.140298  -0.014097   0.007500  -0.020170   0.015927
   35  H 11  S   -0.324934   0.080851  -0.015852   0.013639  -0.003114
   36  H 12  S    0.035080  -0.194616   0.006672  -0.156505  -0.104567
   37  H 13  S    0.042198  -0.014274   0.032509  -0.029877   0.224926

                     26         27         28         29         30
                    0.1868     0.2476     0.2808     0.3100     0.3276
                     A          A          A          A          A   
    1  C  1  S   -0.048208   0.035507  -0.075079   0.024316   0.011621
    2  C  1  S    0.251438  -0.174885   0.392076  -0.143150  -0.065570
    3  C  1  X    0.242287  -0.342433   0.568962   0.122825  -0.041143
    4  C  1  Y   -0.145279   0.063807  -0.135593  -0.006353   0.251779
    5  C  1  Z   -0.229664   0.408508  -0.439122   0.221159   0.094286
    6  N  2  S    0.068633  -0.165749  -0.005291   0.069297  -0.011166
    7  N  2  S   -0.407726   1.044417   0.028303  -0.478889   0.046325
    8  N  2  X   -0.007953   0.086981   0.779738   0.325709   0.066588
    9  N  2  Y   -0.314531  -0.202244  -0.061461   0.031615   0.756013
   10  N  2  Z   -0.051213   0.260194  -0.328636   0.745102   0.025277
   11  C  3  S   -0.010064   0.063179   0.057165   0.049169  -0.016304
   12  C  3  S    0.055895  -0.319054  -0.303311  -0.271788   0.079878
   13  C  3  X   -0.075835   0.563635   0.467152   0.213190  -0.052061
   14  C  3  Y    0.009140  -0.321127  -0.154940  -0.074972   0.306217
   15  C  3  Z   -0.058858   0.371670   0.104522   0.302861  -0.045882
   16  C  4  S   -0.164375  -0.011747   0.088878  -0.047362   0.027888
   17  C  4  S    0.860059   0.063812  -0.493977   0.250598  -0.138773
   18  C  4  X    0.222516   0.147475   0.159336  -0.242592   0.291353
   19  C  4  Y   -0.379236   0.102540   0.088520  -0.427952   0.446176
   20  C  4  Z   -0.455025  -0.342250  -0.095972   0.146335  -0.672882
   21  CL 5  S   -0.021775  -0.006249   0.002416  -0.000464  -0.009991
   22  CL 5  S    0.061228   0.016837  -0.007027   0.001746   0.027261
   23  CL 5  X   -0.119135  -0.035355   0.012251  -0.009152  -0.049191
   24  CL 5  Y    0.026761   0.024955  -0.000266  -0.026219   0.037649
   25  CL 5  Z    0.158844   0.040746  -0.016854  -0.001572   0.054271
   26  CL 5  S   -0.393545  -0.121879   0.041373  -0.003651  -0.191108
   27  CL 5  X    0.486592   0.147106  -0.050806   0.035916   0.207030
   28  CL 5  Y   -0.109048  -0.101136  -0.000050   0.106644  -0.155980
   29  CL 5  Z   -0.647355  -0.170504   0.069173   0.005972  -0.229619
   30  H  6  S   -0.136525  -0.128955   0.033840  -0.055238   0.210501
   31  H  7  S    0.008172   0.070426   0.066884   0.311427  -0.042665
   32  H  8  S    0.045233  -0.040833  -0.088653  -0.145076  -0.198285
   33  H  9  S   -0.036341  -0.068163   0.169184  -0.033298   0.236277
   34  H 10  S    0.041352  -0.034486   0.033364  -0.114243  -0.235479
   35  H 11  S   -0.027911   0.038928  -0.158752   0.224299   0.028260
   36  H 12  S   -0.193234   0.003163   0.363533  -0.028668  -0.070679
   37  H 13  S   -0.144269  -0.440400   0.050709   0.861431   0.575068

                     31         32         33         34         35
                    0.4603     0.4677     0.4762     0.4798     0.4906
                     A          A          A          A          A   
    1  C  1  S    0.046096   0.081836  -0.137121  -0.023386   0.019625
    2  C  1  S   -0.291067  -0.513084   0.870764   0.153863  -0.132186
    3  C  1  X    0.350238  -0.442955  -0.303015   0.200713  -0.297783
    4  C  1  Y   -0.522360  -0.367252  -0.425965   0.679067   0.135184
    5  C  1  Z    0.389555  -0.357912   0.111189   0.078310  -0.644382
    6  N  2  S   -0.013618  -0.010484   0.032056   0.003500  -0.002924
    7  N  2  S    0.092055   0.057638  -0.202657  -0.009040   0.018031
    8  N  2  X   -0.171208  -0.052266   0.078244  -0.216814   0.222048
    9  N  2  Y    0.087841  -0.021699   0.081089  -0.405146  -0.053518
   10  N  2  Z   -0.283496   0.253649  -0.086902  -0.049691  -0.053412
   11  C  3  S    0.019988   0.055082  -0.133417  -0.027397   0.008152
   12  C  3  S   -0.136082  -0.348284   0.848245   0.176330  -0.046975
   13  C  3  X   -0.355689   0.356401   0.261943   0.274381  -0.302795
   14  C  3  Y    0.338722   0.498469   0.194898   0.641265  -0.007242
   15  C  3  Z    0.400701  -0.275309   0.245622   0.189994   0.785896
   16  C  4  S    0.051610   0.018852  -0.001818  -0.005214  -0.004328
   17  C  4  S   -0.322367  -0.122043   0.011889   0.016509   0.029186
   18  C  4  X    0.318096   0.103870  -0.087692   0.086843  -0.034713
   19  C  4  Y   -0.087310  -0.261121   0.077361  -0.296312   0.069405
   20  C  4  Z   -0.005425  -0.005686   0.061528   0.184155  -0.030752
   21  CL 5  S   -0.001372  -0.000815   0.002260   0.000278  -0.001049
   22  CL 5  S    0.003757   0.001977  -0.006221  -0.000743   0.003277
   23  CL 5  X    0.008064  -0.003283   0.005583   0.006324   0.000180
   24  CL 5  Y   -0.003421  -0.006393   0.000543  -0.010401  -0.002286
   25  CL 5  Z    0.012617   0.007413  -0.014151   0.005080   0.003183
   26  CL 5  S   -0.025884  -0.018584   0.042797   0.005588  -0.015239
   27  CL 5  X   -0.031446   0.014799  -0.025017  -0.026009  -0.000494
   28  CL 5  Y    0.013084   0.026280  -0.001586   0.043408   0.008570
   29  CL 5  Z   -0.052676  -0.032272   0.060202  -0.020234  -0.012707
   30  H  6  S   -0.407607  -0.014781  -0.834211   0.456356   0.407410
   31  H  7  S    0.743472  -0.164226  -0.431405  -0.107818  -0.511568
   32  H  8  S    0.132901   0.857157  -0.037005  -0.608123   0.439005
   33  H  9  S    0.040479   0.786586  -0.222157   0.394380  -0.437858
   34  H 10  S   -0.298815  -0.153787  -0.745670  -0.678076  -0.338903
   35  H 11  S    0.637941  -0.140569  -0.343235   0.023596   0.744617
   36  H 12  S    0.406850   0.291626  -0.070506   0.226084  -0.076169
   37  H 13  S   -0.185971   0.045254   0.146437  -0.274867   0.003322

                     36         37
                    0.5099     0.5136
                     A          A   
    1  C  1  S   -0.134562   0.067846
    2  C  1  S    0.877255  -0.429997
    3  C  1  X   -0.386263  -0.042803
    4  C  1  Y    0.139656   0.104882
    5  C  1  Z    0.117831  -0.066115
    6  N  2  S    0.006968   0.009862
    7  N  2  S   -0.052125  -0.072011
    8  N  2  X    0.012674  -0.210361
    9  N  2  Y    0.056663   0.186327
   10  N  2  Z    0.074951   0.124578
   11  C  3  S    0.105045  -0.132331
   12  C  3  S   -0.681446   0.850856
   13  C  3  X   -0.331705   0.035996
   14  C  3  Y   -0.069623  -0.402364
   15  C  3  Z   -0.075945  -0.018298
   16  C  4  S    0.052291   0.064590
   17  C  4  S   -0.343959  -0.429370
   18  C  4  X    0.352837   0.548503
   19  C  4  Y   -0.374801  -0.493481
   20  C  4  Z    0.007256  -0.020823
   21  CL 5  S   -0.002402  -0.002647
   22  CL 5  S    0.006416   0.006149
   23  CL 5  X    0.000309  -0.006841
   24  CL 5  Y   -0.011062  -0.002990
   25  CL 5  Z    0.019095   0.025752
   26  CL 5  S   -0.047694  -0.063728
   27  CL 5  X    0.001196   0.032101
   28  CL 5  Y    0.044794   0.012676
   29  CL 5  Z   -0.081778  -0.113398
   30  H  6  S   -0.416377   0.324357
   31  H  7  S   -0.668611   0.052848
   32  H  8  S   -0.422728   0.177508
   33  H  9  S    0.200245  -0.668259
   34  H 10  S    0.514100  -0.133670
   35  H 11  S    0.419785  -0.497969
   36  H 12  S    0.637206   0.817253
   37  H 13  S    0.088681   0.126018
 ...... END OF UHF CALCULATION ......
 STEP CPU TIME =     0.14 TOTAL CPU TIME =          0.3 (      0.0 MIN)
 TOTAL WALL CLOCK TIME=          0.4 SECONDS, CPU UTILIZATION IS    89.19%

     ----------------------------------------------------------------
     PROPERTY VALUES FOR THE UHF   SELF-CONSISTENT FIELD WAVEFUNCTION
     ----------------------------------------------------------------

          -----------------
          ENERGY COMPONENTS
          -----------------

         WAVEFUNCTION NORMALIZATION =       1.0000000000

                ONE ELECTRON ENERGY =   -1309.5719100981
                TWO ELECTRON ENERGY =     452.6175263204
           NUCLEAR REPULSION ENERGY =     231.9694188064
                                      ------------------
                       TOTAL ENERGY =    -624.9849649714

 ELECTRON-ELECTRON POTENTIAL ENERGY =     452.6175263204
  NUCLEUS-ELECTRON POTENTIAL ENERGY =   -1924.4063596697
   NUCLEUS-NUCLEUS POTENTIAL ENERGY =     231.9694188064
                                      ------------------
             TOTAL POTENTIAL ENERGY =   -1239.8194145429
               TOTAL KINETIC ENERGY =     614.8344495715
                 VIRIAL RATIO (V/T) =       2.0165093472

          ---------------------------------------
          MULLIKEN AND LOWDIN POPULATION ANALYSES
          ---------------------------------------

     ATOMIC MULLIKEN POPULATION IN EACH MOLECULAR ORBITAL
        ALPHA ORBITALS

                      1          2          3          4          5

                  1.000000   1.000000   1.000000   1.000000   1.000000

    1             0.000000  -0.000252   0.000004   1.001457   0.000214
    2            -0.000000   1.001117  -0.000263  -0.000248  -0.000248
    3            -0.000000  -0.000249   0.000003   0.000212   1.001458
    4             0.000003  -0.000265   1.000995   0.000004   0.000004
    5             0.999997   0.000000  -0.000248  -0.000000   0.000000
    6             0.000000   0.000001   0.000000  -0.000474  -0.000000
    7            -0.000000   0.000001   0.000000  -0.000474  -0.000000
    8             0.000000   0.000001  -0.000000  -0.000474  -0.000000
    9             0.000000   0.000001   0.000000   0.000000  -0.000475
   10             0.000000   0.000001  -0.000000   0.000000  -0.000475
   11             0.000000   0.000001  -0.000000   0.000000  -0.000475
   12             0.000000   0.000001  -0.000486  -0.000000  -0.000000
   13             0.000000  -0.000361  -0.000004  -0.000002  -0.000003

                      6          7          8          9         10

                  1.000000   1.000000   1.000000   1.000000   1.000000

    1            -0.000000  -0.000000  -0.000000  -0.000000   0.077697
    2             0.000000   0.000000   0.000000   0.000000   0.640400
    3             0.000000  -0.000000  -0.000000   0.000000   0.076681
    4            -0.000588  -0.000407  -0.000049  -0.000023   0.115383
    5             1.000590   1.000407   1.000049   1.000024   0.013267
    6            -0.000000  -0.000000  -0.000000  -0.000000   0.003211
    7             0.000000  -0.000000   0.000000   0.000000   0.003311
    8            -0.000000  -0.000000  -0.000000   0.000000   0.003373
    9            -0.000000  -0.000000  -0.000000  -0.000000   0.003139
   10            -0.000000  -0.000000   0.000000  -0.000000   0.003294
   11            -0.000002  -0.000000  -0.000000  -0.000001   0.003288
   12            -0.000000   0.000000   0.000000   0.000001   0.004147
   13            -0.000001  -0.000000  -0.000000  -0.000000   0.052810

                     11         12         13         14         15

                  1.000000   1.000000   1.000000   1.000000   1.000000

    1             0.034925   0.248370   0.227722   0.033546   0.086420
    2             0.065605   0.159411   0.160858   0.245850   0.307501
    3             0.017314   0.322460   0.128401   0.069082   0.141993
    4             0.279324   0.016750   0.089860   0.266560   0.144692
    5             0.566429   0.000578   0.166277   0.147764   0.034854
    6             0.004465   0.029545   0.051801   0.000167   0.012962
    7             0.002428   0.046083   0.029508   0.003656   0.032979
    8             0.002767   0.033100   0.043713   0.015806   0.003642
    9             0.002614   0.043111   0.030017   0.004886   0.046869
   10             0.001211   0.041503   0.026395   0.028493  -0.000007
   11             0.000245   0.053678   0.016724   0.008694   0.033330
   12             0.019462   0.005364   0.009032   0.071099   0.066305
   13             0.003210   0.000048   0.019691   0.104397   0.088458

                     16         17         18         19         20

                  1.000000   1.000000   1.000000   1.000000   1.000000

    1             0.164519   0.219444   0.347751   0.201204   0.042104
    2             0.255218   0.262396   0.011211   0.097329   0.058957
    3             0.133283   0.142422   0.169381   0.217708   0.343004
    4             0.182378   0.098929   0.039511   0.094276   0.111659
    5             0.025177   0.076754   0.023763   0.027554   0.025318
    6             0.002827   0.101461   0.106110   0.009951   0.004101
    7             0.055388   0.017924   0.001627   0.074897   0.008336
    8             0.023479   0.010840   0.165768   0.083306   0.029485
    9             0.027757   0.004590   0.020925   0.029959   0.212971
   10             0.000188   0.050961   0.094035   0.069928   0.080552
   11             0.054216   0.009426   0.007407   0.065981   0.015055
   12             0.073937   0.004021   0.012018   0.010765   0.045329
   13             0.001635   0.000832   0.000493   0.017143   0.023129

                     21         22         23         24         25

                  1.000000   1.000000   1.000000   1.000000   1.000000

    1             0.248841   0.081717   0.024106   0.002286   0.000279
    2             0.098674   0.114826   0.047731   0.029148   0.008842
    3             0.218865   0.037769   0.018743   0.004692   0.005002
    4             0.025148   0.324686   0.429534   0.006133   0.303629
    5             0.019240   0.313821   0.424565   0.936151   0.661786
    6             0.060988   0.036422   0.007008   0.001434   0.000211
    7             0.149233   0.007854   0.001187   0.000111   0.000016
    8             0.000327   0.014107   0.003406   0.000009   0.000180
    9             0.000470   0.000506   0.005525   0.000484   0.000172
   10             0.029137   0.002252   0.004699   0.000366   0.000214
   11             0.144056   0.014006   0.004674   0.000086   0.000103
   12             0.000090   0.038513   0.003581   0.018143   0.009376
   13             0.004931   0.013522   0.025241   0.000957   0.010189

     ATOMIC MULLIKEN POPULATION IN EACH MOLECULAR ORBITAL
         BETA ORBITALS

                      1          2          3          4          5

                  1.000000   1.000000   1.000000   1.000000   1.000000

    1             0.000000  -0.000254   1.001438   0.000166   0.000070
    2            -0.000000   1.001124  -0.000247  -0.000245  -0.000235
    3            -0.000000  -0.000250   0.000171   1.000466   0.001034
    4             0.000003  -0.000266   0.000062   0.001035   0.999784
    5             0.999997   0.000000   0.000000  -0.000000  -0.000218
    6             0.000000   0.000001  -0.000474  -0.000000  -0.000000
    7            -0.000000   0.000001  -0.000474  -0.000000  -0.000000
    8             0.000000   0.000001  -0.000474  -0.000000  -0.000000
    9             0.000000   0.000001   0.000000  -0.000474  -0.000001
   10             0.000000   0.000001   0.000000  -0.000473  -0.000001
   11             0.000000   0.000001   0.000000  -0.000473  -0.000001
   12             0.000000   0.000001  -0.000000  -0.000000  -0.000427
   13             0.000000  -0.000364  -0.000002  -0.000002  -0.000004

                      6          7          8          9         10

                  1.000000   1.000000   1.000000   1.000000   1.000000

    1            -0.000000  -0.000000  -0.000000  -0.000000   0.083416
    2             0.000000   0.000000   0.000000   0.000000   0.679868
    3             0.000000  -0.000000   0.000000  -0.000000   0.080416
    4            -0.000585  -0.000427  -0.000023  -0.000025   0.069722
    5             1.000587   1.000427   1.000024   1.000025   0.008356
    6            -0.000000  -0.000000  -0.000000  -0.000000   0.003595
    7             0.000000   0.000000   0.000000  -0.000000   0.003572
    8            -0.000000  -0.000000   0.000000  -0.000000   0.003635
    9            -0.000000  -0.000000  -0.000000  -0.000000   0.003480
   10            -0.000000  -0.000000  -0.000000   0.000000   0.003486
   11            -0.000002  -0.000000  -0.000001  -0.000000   0.003480
   12            -0.000000   0.000000   0.000000   0.000000   0.002837
   13            -0.000001  -0.000000  -0.000000  -0.000000   0.054137

                     11         12         13         14         15

                  1.000000   1.000000   1.000000   1.000000   1.000000

    1             0.028091   0.263318   0.226572   0.035476   0.112053
    2             0.038160   0.159084   0.191037   0.330515   0.315659
    3             0.006864   0.309390   0.181966   0.048159   0.149782
    4             0.179226   0.009821   0.052219   0.251537   0.093132
    5             0.723749   0.003739   0.077067   0.095721   0.036251
    6             0.003840   0.032438   0.051766   0.003366   0.011513
    7             0.002346   0.048602   0.029403   0.001586   0.050350
    8             0.002697   0.035466   0.047778   0.011779   0.002114
    9             0.001281   0.041700   0.040953   0.000025   0.036631
   10             0.000534   0.040217   0.039790   0.022226  -0.000016
   11            -0.000004   0.051952   0.024461   0.004591   0.046752
   12             0.012751   0.004214   0.003959   0.096460   0.064496
   13             0.000466   0.000061   0.033029   0.098559   0.081283

                     16         17         18         19         20

                  1.000000   1.000000   1.000000   1.000000   1.000000

    1             0.150565   0.230325   0.328016   0.183702   0.078565
    2             0.243780   0.244666   0.006070   0.129806   0.097240
    3             0.139664   0.136422   0.209984   0.241628   0.284771
    4             0.175627   0.077618   0.016482   0.037019   0.092427
    5             0.023709   0.074445   0.016749   0.011358   0.019554
    6             0.004357   0.093973   0.130411   0.001561   0.019276
[...]
  7   H            X  0.11344837 -0.21951965  0.02622828  0.08483411  0.05843827
                   Y  0.13222972  0.08992379  0.04437355  0.08215876 -0.11781500
                   Z -0.05222169  0.26144694  0.01089780 -0.03738903 -0.08821740
  8   H            X  0.24682045  0.24771084  0.05894966 -0.00377242 -0.08457491
                   Y  0.01673010 -0.14629852 -0.00139183  0.07559323  0.05540843
                   Z -0.28597082 -0.09524517 -0.10628206 -0.11068454  0.07308479
  9   H            X  0.12385051 -0.13521498 -0.04065425  0.11954602  0.03475570
                   Y -0.01253249  0.13137216  0.01788866 -0.04774378  0.05732224
                   Z  0.13451282  0.06170011 -0.03789656  0.11657748  0.10979834
 10   H            X -0.16027872 -0.29467420  0.08744192 -0.05759534 -0.09317631
                   Y  0.14217733  0.08700853 -0.07632304  0.08213172 -0.04422695
                   Z -0.10284864 -0.02802181  0.08038431 -0.13194941  0.04730148
 11   H            X  0.08808359  0.26654992  0.02302558  0.08168539  0.13497068
                   Y  0.06779650 -0.11297089 -0.06024781  0.12134448 -0.06448181
                   Z  0.03542296  0.18481226  0.02906671  0.02468708  0.08475672
 12   H            X  0.07535799  0.01422143 -0.34843500 -0.02047402 -0.08074935
                   Y  0.00685080  0.03751655 -0.35344641 -0.03470511 -0.09789725
                   Z -0.08087839 -0.02157535  0.57270480  0.00240362  0.13266124
 13   H            X  0.01907219 -0.01086253 -0.29194898  0.15599780  0.64124247
                   Y  0.40225298 -0.11856848  0.06750208 -0.49911129 -0.11506404
                   Z -0.30550348  0.25872565  0.11262602  0.50590986 -0.28036458

 TRANS. SAYVETZ    X -0.00000103 -0.00000038  0.00000078  0.00000064  0.00000075
                   Y -0.00000142  0.00000001 -0.00000132  0.00000070 -0.00000035
                   Z  0.00000324 -0.00000043  0.00000004 -0.00000179  0.00000040
               TOTAL  0.00000368  0.00000058  0.00000154  0.00000203  0.00000092

   ROT. SAYVETZ    X  0.00000764  0.00004126  0.00021030 -0.00001057  0.00007146
                   Y -0.00002386  0.00014395  0.00031917 -0.00000810  0.00006433
                   Z -0.00017117 -0.00002233  0.00032407 -0.00001874  0.00008849
               TOTAL  0.00017299  0.00015140  0.00050112  0.00002299  0.00013068

                           26          27          28          29          30
       FREQUENCY:      1660.72     1696.44     1738.62     1740.20     1748.36  
        SYMMETRY:         A           A           A           A           A   
    REDUCED MASS:      1.17026     1.20260     1.05318     1.04622     1.04878
    IR INTENSITY:      0.07651     0.00275     0.26971     0.25273     0.51301

  1   C            X -0.05703424 -0.05753562  0.00501742  0.01395040 -0.03715931
                   Y  0.01514428  0.02181272 -0.03226478  0.02147280  0.00069969
                   Z  0.04704701  0.06280192  0.02184813  0.01334191 -0.02702898
  2   N            X  0.00128198 -0.00710800  0.01841154  0.01717478 -0.00717936
                   Y  0.00159261 -0.00550460 -0.00672838 -0.00798569  0.00473263
                   Z -0.00211707  0.00343604 -0.00523892 -0.00774099 -0.02005113
  3   C            X -0.06677814  0.06496764  0.02083866 -0.00784486  0.01658866
                   Y  0.03815963 -0.03181039  0.02114575 -0.03144329 -0.01045604
                   Z -0.03105086  0.03580505 -0.03126754 -0.03086759 -0.02211734
  4   C            X -0.00461642  0.00999374 -0.00423287 -0.00177758  0.00050905
                   Y  0.00046927  0.01070488  0.00045904 -0.00046220 -0.00132618
                   Z  0.00434146 -0.01263301  0.00314349  0.00191780  0.00135788
  5   CL           X  0.00030431 -0.00051402  0.00016045 -0.00009632  0.00000186
                   Y -0.00026604 -0.00019842 -0.00019844 -0.00006495 -0.00011841
                   Z -0.00050949  0.00126027 -0.00022255  0.00005567  0.00011883
  6   H            X  0.23281948  0.20888658  0.01672748 -0.29574863  0.38358522
                   Y -0.20137898 -0.23751848 -0.16986210 -0.00363057  0.15155382
                   Z -0.16195148 -0.22611484 -0.20001892 -0.16439438  0.41231986
  7   H            X  0.14339484  0.14389889  0.04085867 -0.16602335  0.18925491
                   Y -0.02666801 -0.06770849  0.30169672 -0.31270291  0.14226744
                   Z -0.31496409 -0.33395677  0.19102211  0.06594672 -0.28411947
  8   H            X  0.32756123  0.35352016 -0.19495103  0.18473013 -0.04212504
                   Y  0.00643884  0.03726882  0.33063564 -0.00190728 -0.30174266
                   Z -0.16806895 -0.19384586 -0.27198103 -0.06750699  0.32889814
  9   H            X  0.37810002 -0.33302301  0.19208800 -0.17371835  0.00447756
                   Y -0.05972108  0.03458493  0.12028354  0.30944973  0.18481565
                   Z  0.07609996 -0.09594762  0.24873392  0.43131116  0.30188940
 10   H            X  0.27979260 -0.23905928 -0.31048475  0.14757360 -0.11041245
                   Y -0.26580588  0.24455296 -0.18599501 -0.26603077 -0.18071294
                   Z  0.07218731 -0.06359028  0.38530137  0.12857187  0.23690160
 11   H            X  0.20776062 -0.19637147 -0.23577180  0.09275899 -0.08909442
                   Y -0.14354156  0.10395994 -0.19390043  0.47040238  0.10921965
                   Z  0.29575107 -0.26195427 -0.19528118 -0.09958093 -0.15808563
 12   H            X  0.00726896 -0.03405258  0.00998819  0.00934053 -0.00784394
                   Y  0.01184587 -0.02815248  0.01411193  0.00991735 -0.01022989
                   Z -0.01302265  0.04808174 -0.01215138 -0.01291404  0.00903658
 13   H            X -0.07588964  0.00531159 -0.03730228 -0.08573552  0.01071632
                   Y  0.02566508 -0.01204128  0.01032798  0.03193196 -0.02486169
                   Z  0.01890596  0.01218149  0.00961476  0.01003143 -0.00335708

 TRANS. SAYVETZ    X -0.00000054  0.00000030 -0.00000027  0.00000003 -0.00000008
                   Y -0.00000034 -0.00000103 -0.00000024  0.00000006 -0.00000009
                   Z  0.00000012  0.00000033 -0.00000005  0.00000006  0.00000041
               TOTAL  0.00000065  0.00000112  0.00000036  0.00000009  0.00000043

   ROT. SAYVETZ    X -0.00000940  0.00002336 -0.00000674 -0.00001828 -0.00000934
                   Y  0.00000530  0.00002547 -0.00001927 -0.00001634 -0.00001253
                   Z  0.00000635  0.00002395 -0.00000435 -0.00000803  0.00000307
               TOTAL  0.00001252  0.00004205  0.00002087  0.00002580  0.00001593

                           31          32          33          34          35
       FREQUENCY:      1753.10     3576.82     3579.66     3669.66     3764.06  
        SYMMETRY:         A           A           A           A           A   
    REDUCED MASS:      1.05578     1.03576     1.03556     1.09376     1.11477
    IR INTENSITY:      1.05316     0.15295     0.08385     0.58598     0.29530

  1   C            X -0.00803609 -0.03379171 -0.01095173  0.00052976  0.03176695
                   Y -0.03460986  0.01074779  0.00364152 -0.00058575 -0.06034301
                   Z  0.00327986  0.03106286  0.00964462  0.00067600  0.05506411
  2   N            X -0.01208174  0.00238463 -0.00122612  0.00000858 -0.00050065
                   Y -0.03042014 -0.00073052  0.00096995 -0.00205636  0.00034897
                   Z  0.01784445 -0.00114461 -0.00132204  0.00101328 -0.00031050
  3   C            X -0.01764519 -0.01155576  0.03703186  0.00048565  0.01886415
                   Y -0.02677730  0.00638819 -0.01986400  0.00004283  0.01041661
                   Z  0.00457845 -0.00693247  0.02095889 -0.00001955 -0.02405460
  4   C            X  0.00392816  0.00030045  0.00015770 -0.05858232  0.00102922
                   Y  0.00694222 -0.00015460 -0.00031333  0.06072442 -0.00088638
                   Z -0.01008413 -0.00013915 -0.00001916 -0.00396740 -0.00015355
  5   CL           X -0.00027111  0.00001160 -0.00001111  0.00062728 -0.00000969
                   Y  0.00007657 -0.00000612  0.00004637 -0.00047709  0.00003388
                   Z  0.00059482  0.00000631 -0.00006538 -0.00097869 -0.00000589
  6   H            X  0.29117301  0.12760485  0.04037766  0.00229727  0.13798932
                   Y -0.13222364  0.44491564  0.14152435  0.00622449  0.51247395
                   Z -0.02714951 -0.27763149 -0.08816630 -0.00448768 -0.30878915
  7   H            X  0.16548067  0.43659593  0.13824037 -0.00568493 -0.50216428
                   Y  0.46487338 -0.18905997 -0.05984841  0.00165161  0.21779683
                   Z  0.07147665  0.26733371  0.08516027 -0.00313002 -0.32172457
  8   H            X -0.29069901 -0.19389257 -0.06202008 -0.00074055 -0.01050213
                   Y  0.23056264 -0.37380945 -0.11957164 -0.00131924 -0.02060981
                   Z -0.12428577 -0.32853871 -0.10502104 -0.00110390 -0.01667807
  9   H            X -0.26930306 -0.05222673  0.16466748 -0.00007511 -0.07210069
                   Y  0.08639586 -0.14217094  0.44546723 -0.00296522 -0.18334008
                   Z  0.02590606  0.08483200 -0.26610357  0.00190185  0.10842148
 10   H            X  0.31265542  0.06605900 -0.20891028 -0.00198783  0.00380253
                   Y -0.00585195  0.11282636 -0.35701641 -0.00331319  0.00683877
                   Z -0.21175561  0.10842261 -0.34271184 -0.00338817  0.00637368
 11   H            X  0.22400586  0.11523456 -0.35967931 -0.00498338 -0.15667714
                   Y  0.38371114 -0.04114028  0.12831680  0.00152048  0.05596645
                   Z  0.09297009 -0.12093900  0.37926577  0.00534354  0.16991536
 12   H            X -0.00777092  0.00021292 -0.00360856  0.68131916 -0.00883671
                   Y -0.00166503 -0.00019480  0.00423828 -0.66178351  0.00808332
                   Z  0.01463219 -0.00000081 -0.00101883  0.06773674 -0.00097062
 13   H            X  0.01074382  0.00324343 -0.00405533 -0.00658947  0.00067080
                   Y  0.04247555 -0.00319791 -0.00130697 -0.01146125  0.00178548
                   Z -0.08386760 -0.00345293 -0.00492953 -0.00357003  0.00057374

 TRANS. SAYVETZ    X  0.00000029 -0.00000042 -0.00000033  0.00000018 -0.00000004
                   Y  0.00000001  0.00000047  0.00000005 -0.00000049 -0.00000003
                   Z -0.00000024  0.00000005 -0.00000009  0.00000038  0.00000000
               TOTAL  0.00000038  0.00000064  0.00000034  0.00000065  0.00000005

   ROT. SAYVETZ    X  0.00000370  0.00000156 -0.00000051  0.00000151  0.00000105
                   Y  0.00000753 -0.00000182  0.00000028  0.00000132 -0.00000016
                   Z  0.00003623 -0.00000440 -0.00000116  0.00000526 -0.00000074
               TOTAL  0.00003719  0.00000501  0.00000130  0.00000563  0.00000130

                           36          37          38          39
       FREQUENCY:      3767.21     3767.32     3769.43     3887.10  
        SYMMETRY:         A           A           A           A   
    REDUCED MASS:      1.11585     1.11530     1.11553     1.07905
    IR INTENSITY:      0.20885     0.59128     0.57893     1.87996

  1   C            X -0.05425964  0.01231632 -0.01568611 -0.00192118
                   Y -0.04558631  0.04631929 -0.02051409 -0.00096963
                   Z -0.04195826 -0.00278519 -0.00945391 -0.00030570
  2   N            X  0.00095112 -0.00063062  0.00133927 -0.02716171
                   Y  0.00111919 -0.00066811  0.00292381 -0.04884171
                   Z  0.00135583  0.00045883  0.00215204 -0.04411003
  3   C            X  0.02694148  0.04260347 -0.01939962  0.00028782
                   Y  0.03062399  0.00851641 -0.07825289 -0.00224898
                   Z -0.01886221 -0.06762153 -0.03885039 -0.00080213
  4   C            X  0.00042139  0.00016408 -0.00028668 -0.00074616
                   Y -0.00024650 -0.00027663  0.00029527  0.00116710
                   Z  0.00001626  0.00033068 -0.00010502  0.00007247
  5   CL           X -0.00000325 -0.00000955 -0.00000371  0.00002428
                   Y  0.00001334  0.00001811  0.00001491  0.00000593
                   Z -0.00000636 -0.00003143 -0.00003013 -0.00002502
  6   H            X  0.05443012 -0.08191716  0.03033221  0.00291804
                   Y  0.20607983 -0.30664972  0.11476463  0.01096297
                   Z -0.12511573  0.18489333 -0.06967034 -0.00508290
  7   H            X  0.32570957  0.04997440  0.06710496  0.01078841
                   Y -0.14270131 -0.02118778 -0.02951253 -0.00346023
                   Z  0.20989396  0.03307005  0.04365102  0.00811921
  8   H            X  0.25568189 -0.11655490  0.08560341  0.00180811
                   Y  0.47094041 -0.21416902  0.15719410  0.01426034
                   Z  0.40673693 -0.18576821  0.13589742  0.01596126
  9   H            X -0.11732000 -0.14727657  0.14134726  0.00540918
                   Y -0.29745626 -0.37338860  0.35723637  0.01189120
                   Z  0.17582780  0.22057325 -0.21265741 -0.00549948
 10   H            X -0.06118548  0.06749922  0.27332489  0.01279192
                   Y -0.11073286  0.12241716  0.49595586  0.01041811
                   Z -0.10406292  0.11350529  0.46346154  0.01566357
 11   H            X -0.13538439 -0.42163815 -0.18763607 -0.00763819
                   Y  0.04854146  0.14958342  0.06510655  0.00370547
                   Z  0.14888119  0.46102209  0.20488708  0.01041624
 12   H            X -0.00105643 -0.00199905  0.00218186  0.00879811
                   Y  0.00063921  0.00136627 -0.00132508 -0.00631064
                   Z  0.00010002 -0.00008746 -0.00014602 -0.00129640
 13   H            X -0.01372234  0.00513142 -0.00956484  0.37000860
                   Y -0.01023484  0.00105729 -0.02807573  0.66137793
                   Z -0.00689335  0.00189054 -0.01787758  0.58779458

 TRANS. SAYVETZ    X -0.00000001  0.00000002 -0.00000002 -0.00000014
                   Y -0.00000001 -0.00000000 -0.00000006  0.00000005
                   Z  0.00000004 -0.00000003  0.00000001  0.00000010
               TOTAL  0.00000005  0.00000004  0.00000006  0.00000019

   ROT. SAYVETZ    X -0.00000123  0.00000064 -0.00000018 -0.00000092
                   Y -0.00000011  0.00000068  0.00000014  0.00000051
                   Z -0.00000032 -0.00000131  0.00000052  0.00000002
               TOTAL  0.00000128  0.00000160  0.00000056  0.00000105

 REFERENCE ON SAYVETZ CONDITIONS - A. SAYVETZ, J.CHEM.PHYS., 7, 383-389(1939).

 NOTE - THE MODES J,K ARE ORTHONORMALIZED ACCORDING TO
 SUM ON I   M(I) * (X(I,J)*X(I,K) + Y(I,J)*Y(I,K) + Z(I,J)*Z(I,K)) = DELTA(J,K)

  MODE FREQ(CM**-1)  SYMMETRY  RED. MASS  IR INTENS.
     1       0.231    A        6.254642    0.003951
     2       0.097    A        7.371856    0.000200
     3       0.029    A        7.117020    0.000008
     4       1.168    A        5.591243    0.123143
     5       2.329    A        4.981365    0.124199
     6       3.995    A        2.638756    0.023635
     7      63.421    A        3.018530    0.098781
     8     215.794    A        1.037160    0.000802
     9     229.576    A        1.912968    0.108076
    10     264.410    A        1.526932    0.084902
    11     380.731    A        2.947154    0.050065
    12     437.783    A        2.188784    0.032020
    13     482.118    A        2.833177    0.067485
    14     711.322    A        1.645117    0.132456
    15     937.088    A        3.452021    0.178844
    16    1028.186    A        3.303818    0.080602
    17    1165.115    A        2.025018    1.020941
    18    1181.085    A        2.119404    0.773732
    19    1186.295    A        1.117072    0.097212
    20    1317.592    A        1.494338    0.239365
    21    1351.575    A        1.435421    0.041511
    22    1424.915    A        1.587848    0.167228
    23    1464.018    A        1.294623    0.893107
    24    1610.701    A        1.466014    1.035666
    25    1621.341    A        1.459631    1.788288
    26    1660.724    A        1.170258    0.076509
    27    1696.441    A        1.202601    0.002748
    28    1738.619    A        1.053179    0.269709
    29    1740.202    A        1.046222    0.252733
    30    1748.363    A        1.048776    0.513009
    31    1753.095    A        1.055781    1.053164
    32    3576.819    A        1.035761    0.152947
    33    3579.656    A        1.035560    0.083845
    34    3669.658    A        1.093758    0.585977
    35    3764.056    A        1.114775    0.295299
    36    3767.215    A        1.115850    0.208849
    37    3767.321    A        1.115300    0.591278
    38    3769.435    A        1.115527    0.578926
    39    3887.103    A        1.079052    1.879958

     -------------------------------
     THERMOCHEMISTRY AT T=  298.15 K
     -------------------------------

 USING IDEAL GAS, RIGID ROTOR, HARMONIC NORMAL MODE APPROXIMATIONS.
 P=  1.01325E+05 PASCAL.
 ALL FREQUENCIES ARE SCALED BY   1.00000
 THE MOMENTS OF INERTIA ARE (IN AMU*BOHR**2)
            227.92333           836.30128          1002.68766
 THE ROTATIONAL SYMMETRY NUMBER IS  1.0
 THE ROTATIONAL CONSTANTS ARE (IN GHZ)
      7.91094     2.15603     1.79826
      7 -     39 VIBRATIONAL MODES ARE USED IN THERMOCHEMISTRY.
 THE HARMONIC ZERO POINT ENERGY IS (SCALED BY   1.000)
        0.130292 HARTREE/MOLECULE    28595.886141 CM**-1/MOLECULE 
       81.759823 KCAL/MOL              342.083101 KJ/MOL

               Q               LN Q
 ELEC.     2.00000E+00       0.693147
 TRANS.    3.52712E+07      17.378577
 ROT.      1.56495E+05      11.960778
 VIB.      1.94960E+01       2.970209
 TOT.      2.15226E+14      33.002711

              E         H         G         CV        CP        S
           KJ/MOL    KJ/MOL    KJ/MOL   J/MOL-K   J/MOL-K   J/MOL-K
 ELEC.      0.000     0.000    -1.718     0.000     0.000     5.763
 TRANS.     3.718     6.197   -43.080    12.472    20.786   165.279
 ROT.       3.718     3.718   -29.650    12.472    12.472   111.918
 VIB.     351.165   351.165   334.720    60.783    60.783    55.157
 TOTAL    358.602   361.081   260.271    85.726    94.040   338.117
 VIB. THERMAL CORRECTION E(T)-E(0) = H(T)-H(0) =      9082.150 J/MOL

              E         H         G         CV        CP        S
         KCAL/MOL  KCAL/MOL  KCAL/MOL CAL/MOL-K CAL/MOL-K CAL/MOL-K
 ELEC.      0.000     0.000    -0.411     0.000     0.000     1.377
 TRANS.     0.889     1.481   -10.296     2.981     4.968    39.503
 ROT.       0.889     0.889    -7.087     2.981     2.981    26.749
 VIB.      83.931    83.931    80.000    14.527    14.527    13.183
 TOTAL     85.708    86.300    62.206    20.489    22.476    80.812
 VIB. THERMAL CORRECTION E(T)-E(0) = H(T)-H(0) =      2170.686 CAL/MOL
 ......END OF NORMAL COORDINATE ANALYSIS......
 STEP CPU TIME =     0.01 TOTAL CPU TIME =         11.0 (      0.2 MIN)
 TOTAL WALL CLOCK TIME=         11.4 SECONDS, CPU UTILIZATION IS    97.01%
               580000  WORDS OF DYNAMIC MEMORY USED
 EXECUTION OF GAMESS TERMINATED NORMALLY Wed Dec 22 13:22:56 2021
 DDI: 263640 bytes (0.3 MB / 0 MWords) used by master data server.

 ----------------------------------------
 CPU timing information for all processes
 ========================================
 0: 10.731 + 0.291 = 11.22
 ----------------------------------------
 ddikick.x: exited gracefully.
----- accounting info -----
Files used on the master node chemcompute-node-5.novalocal were:
-rw-r--r--. 1 chemcomp chemcomp     1132 Dec 22 13:22 /scratch/331051/369040.F05
-rw-rw-r--. 1 chemcomp chemcomp  2700240 Dec 22 13:22 /scratch/331051/369040.F08
-rw-rw-r--. 1 chemcomp chemcomp 90112000 Dec 22 13:22 /scratch/331051/369040.F10
-rw-rw-r--. 1 chemcomp chemcomp   439296 Dec 22 13:22 /scratch/331051/369040.F18
Wed Dec 22 13:22:59 UTC 2021
0.122u 0.080s 0:14.88 1.3%	0+0k 8+224io 0pf+0w
Finishing Up...
Looking for IR data...
Looking for Raman data...
vibramans not found
Looking for thermodynamics data...
Looking for UV-Vis data...
331051
